LAMMPS data file via write_data, version 3 Mar 2020, timestep = 10000000

341 atoms
8 atom types
274 bonds
5 bond types
389 angles
8 angle types
420 dihedrals
6 dihedral types

0.0000000000000000e+00 1.6584299999999999e+01 xlo xhi
0.0000000000000000e+00 1.6584299999999999e+01 ylo yhi
0.0000000000000000e+00 1.6584299999999999e+01 zlo zhi

Masses

1 6.941
2 16
3 19
4 12.01
5 32.06
6 14.01
7 16
8 1.008

Pair Coeffs # lj/cut/coul/long

1 0.0182661 2.126
2 0.209859 2.96
3 0.0609584 3.118
4 0.109326 3.4
5 0.249833 3.564
6 0.169886 3.25
7 0.155323 3.165
8 0 0

Bond Coeffs # harmonic

1 492.67 1.466
2 363.556 1.344
3 248.733 1.782
4 256.929 1.752
5 529.23 1.012

Angle Coeffs # harmonic

1 41.2526 108.48
2 45.27 121.88
3 43.0716 107.06
4 81.1647 109.67
5 71.2115 107.16
6 39.3938 103.12
7 109.646 119.18
8 37.9249 113.24

Dihedral Coeffs # charmm

1 0.143897 3 0 0
2 0.143897 3 0 0
3 0.499666 3 180 0
4 6.79545 1 180 0
5 0.499666 3 180 0
6 6.79545 1 180 0

Atoms # full

141 23 6 -5.8799999999999997e-01 2.3853534582385545e+00 2.3008816581373446e+00 3.2740545540850174e+00 0 0 0
138 23 5 9.1100000000000003e-01 1.2187580043406443e+00 2.9457600761082006e+00 2.0955398925941218e+00 0 0 0
135 23 2 -4.6100000000000002e-01 2.0472444995238210e+00 3.6286659246284656e+00 1.0196619490403160e+00 0 0 0
292 51 8 4.0999999999999998e-01 4.2189564028351105e+00 1.0567008660156658e+00 7.3912173369056227e+00 -2 -1 1
32 16 4 3.1900000000000001e-01 4.8825446827752321e+00 6.9377494699676729e+00 5.8747994724448400e+00 0 0 -1
38 16 3 -1.3800000000000001e-01 3.7646357132839925e+00 6.5073411701897879e+00 5.2884678005517705e+00 0 0 -1
144 23 5 9.1100000000000003e-01 4.0450043081553275e+00 2.6671880494370868e+00 3.1028245457879859e+00 0 0 0
145 23 2 -4.6100000000000002e-01 4.5174602945625528e+00 2.4154181090273381e+00 4.4810760414755180e+00 0 0 0
142 23 2 -4.6100000000000002e-01 4.1889963173076534e+00 3.9936605258869555e+00 2.5176137726933039e+00 0 0 0
148 23 4 3.1900000000000001e-01 4.6593042089021726e+00 1.4157284551020517e+00 1.9985037655724589e+00 0 0 0
146 23 3 -1.3800000000000001e-01 3.8618447225122150e+00 1.1304455966374918e+00 1.0055624913109149e+00 0 0 0
36 16 6 -5.8799999999999997e-01 4.5703358596365122e+00 4.8860661109772332e+00 7.7212511837342115e+00 0 0 -1
273 45 7 -8.1999999999999995e-01 4.0692046589473270e+00 7.1007268977627334e+00 1.4621367504890370e+00 0 0 1
267 43 7 -8.1999999999999995e-01 2.2839821423676394e+00 2.7503007174829230e+00 6.3114767574974655e+00 1 -1 1
274 45 8 4.0999999999999998e-01 3.5081447677081741e+00 7.6773836107190263e+00 2.0221061565950706e+00 0 0 1
293 51 8 4.0999999999999998e-01 4.8522687902326664e+00 1.7354808001282584e+00 6.0691908909895336e+00 -2 -1 1
4 4 1 8.0000000000000004e-01 3.5729585063353286e+00 5.3318407451712178e+00 6.3738570209649481e-01 -1 0 0
147 23 3 -1.3800000000000001e-01 4.9246603555279522e+00 2.6891871255815541e-01 2.6189555180819681e+00 0 0 0
139 23 2 -4.6100000000000002e-01 5.3425192797819943e-01 1.7790114285213976e+00 1.6658199560222997e+00 0 0 0
269 43 8 4.0999999999999998e-01 2.7874280425253666e+00 2.8560571251873297e+00 5.4557410854844761e+00 1 -1 1
291 51 7 -8.1999999999999995e-01 5.0682327594621386e+00 1.5752119113871723e+00 7.0183694658699576e+00 -2 -1 1
275 45 8 4.0999999999999998e-01 5.0797933444388335e+00 7.3754204681581141e+00 1.3406301790912132e+00 0 0 1
268 43 8 4.0999999999999998e-01 1.3248336463865067e+00 2.5832670105253484e+00 6.1427548765457738e+00 1 -1 1
302 54 8 4.0999999999999998e-01 7.2391857985929908e-01 5.3012347743420041e-01 4.3692422796925854e+00 2 -2 0
278 46 8 4.0999999999999998e-01 7.7208669086531156e-01 7.3056205778393757e-01 4.8344496993574698e-01 0 0 -1
35 16 3 -1.3800000000000001e-01 4.4801292289909673e+00 7.8537526541406768e+00 6.7271595753815090e+00 0 0 -1
143 23 3 -1.3800000000000001e-01 9.2882070569830522e-01 5.0648582025049826e+00 3.5687351958628133e+00 0 0 0
137 23 4 3.1900000000000001e-01 2.0227541366004631e-01 4.1901045181792815e+00 2.8859184168823968e+00 0 0 0
238 33 8 4.0999999999999998e-01 8.5230827204067765e+00 1.0098913588184717e-01 5.0230164486447713e+00 1 0 -1
31 16 3 -1.3800000000000001e-01 5.5797012406794133e+00 7.5361365862161609e+00 4.9060249181997397e+00 0 0 -1
24 15 5 9.1100000000000003e-01 8.2388168593124060e+00 8.2528369509124673e+00 1.2972513128629928e+00 -1 0 0
25 15 2 -4.6100000000000002e-01 8.8657361955955203e+00 8.0814375919959680e+00 2.6179380223378974e+00 -1 0 0
33 16 5 9.1100000000000003e-01 5.8197765372642474e+00 5.6095559330397133e+00 6.6615966932428794e+00 0 0 -1
22 15 2 -4.6100000000000002e-01 6.7887256983190953e+00 7.9636803172992670e+00 1.3402720537695196e+00 -1 0 0
149 23 3 -1.3800000000000001e-01 5.8259896941756288e+00 1.7712722584396690e+00 1.4942184699814418e+00 0 0 0
34 16 2 -4.6100000000000002e-01 6.1763685314085075e+00 4.5972838606187194e+00 5.6723214660961219e+00 0 0 -1
23 15 3 -1.3800000000000001e-01 6.7672044796091013e+00 5.2603566773659303e+00 2.0236961074715256e+00 -1 0 0
199 27 2 -4.6100000000000002e-01 9.8711527461038298e+00 1.3690584388045144e+00 3.9987612412536100e+00 -1 0 0
14 14 1 8.0000000000000004e-01 7.1123345998260410e+00 1.3141088687207667e+00 7.1348278576346429e+00 0 0 -1
306 56 7 -8.1999999999999995e-01 8.5979219106278038e+00 3.2997699565229039e+00 6.0874564652200140e+00 0 -1 -1
169 25 2 -4.6100000000000002e-01 9.6204698080447244e+00 6.9251748150258505e+00 5.6704722307809732e+00 -1 -1 0
18 15 5 9.1100000000000003e-01 9.2133397990810977e+00 5.4426315411569508e+00 1.0310710258929030e+00 -1 0 0
16 15 3 -1.3800000000000001e-01 8.2735106904228495e+00 5.6143143383051655e+00 3.5801948324180741e+00 -1 0 0
17 15 4 3.1900000000000001e-01 8.0276080520274586e+00 5.0207708029838507e+00 2.4149032268412221e+00 -1 0 0
20 15 3 -1.3800000000000001e-01 8.1800818547871845e+00 3.6791940880935363e+00 2.7144320547916512e+00 -1 0 0
308 56 8 4.0999999999999998e-01 9.2247528487426820e+00 3.1670623167735865e+00 5.2841408136089081e+00 0 -1 -1
168 25 5 9.1100000000000003e-01 1.0609244365065054e+01 6.2474698223635654e+00 6.4852480734138016e+00 -1 -1 0
165 25 2 -4.6100000000000002e-01 1.0106703505700024e+01 5.2575797616192617e+00 7.4446012866216558e+00 -1 -1 0
307 56 8 4.0999999999999998e-01 7.8204939731729475e+00 3.9757146448497709e+00 5.8472580925473334e+00 0 -1 -1
30 16 2 -4.6100000000000002e-01 6.9534146109502464e+00 5.9252483376945335e+00 7.5448200695605792e+00 0 0 -1
19 15 2 -4.6100000000000002e-01 1.0543110671194006e+01 5.6030790981373135e+00 1.5711500531278366e+00 -1 0 0
21 15 6 -5.8799999999999997e-01 8.9162436555883620e+00 6.9636322606055385e+00 2.3022204205176330e-01 -1 0 0
10 10 1 8.0000000000000004e-01 8.6547129759731583e+00 3.9215755539544324e+00 8.2468366053126960e+00 0 0 -1
336 66 7 -8.1999999999999995e-01 1.2286046149746872e+01 8.2260759661114182e+00 1.7226898854393007e+00 0 0 0
202 27 2 -4.6100000000000002e-01 1.3155534223219213e+01 6.4235356428499391e-01 8.9406221244465933e-01 -1 0 0
136 23 3 -1.3800000000000001e-01 1.5812019082757672e+01 3.6205937342289154e+00 3.6764051256452888e+00 -1 0 0
337 66 8 4.0999999999999998e-01 1.1363467221372099e+01 8.2097077804624519e+00 2.2148425550767659e+00 0 0 0
195 27 2 -4.6100000000000002e-01 1.1179330957810290e+01 2.5022992537352979e+00 2.2736552550862208e+00 -1 0 0
166 25 3 -1.3800000000000001e-01 1.1434778472093491e+01 4.7186907047870577e+00 4.5129636837709448e+00 -1 -1 0
200 27 3 -1.3800000000000001e-01 1.2669863369217332e+01 2.1874735547428057e+00 5.2245218713829953e+00 -1 0 0
298 53 8 4.0999999999999998e-01 1.6132373058601068e+01 6.0723072598711569e+00 7.8011183485141018e+00 -2 0 0
140 23 3 -1.3800000000000001e-01 1.5970611167138429e+01 4.8770527085503641e+00 2.0315220027000276e+00 -1 0 0
299 53 8 4.0999999999999998e-01 1.6327773240571247e+01 5.9346708120205598e+00 6.1434674641895564e+00 -2 0 0
171 25 6 -5.8799999999999997e-01 1.1284232023394086e+01 7.5173367760367071e+00 7.4372893819357015e+00 -1 -1 0
167 25 4 3.1900000000000001e-01 1.1939732048341012e+01 5.7039258105865338e+00 5.3632629434212129e+00 -1 -1 0
112 21 2 -4.6100000000000002e-01 1.5790130397817247e+01 3.3174731162777884e+00 6.5234177311752042e+00 -1 0 0
3 3 1 8.0000000000000004e-01 1.2781093087835742e+01 6.2410802304103212e+00 7.3752744939136927e-01 -1 0 0
334 65 8 4.0999999999999998e-01 1.2190258825497409e+01 3.6836759711168074e+00 1.4915218859345667e+00 -1 -1 1
198 27 5 9.1100000000000003e-01 1.1130939668526365e+01 1.4329123383376388e+00 3.2387627792868763e+00 -1 0 0
114 21 5 9.1100000000000003e-01 1.5335366634513148e+01 2.3430844820989947e+00 7.5296500205996315e+00 -1 0 0
173 25 3 -1.3800000000000001e-01 1.2542792780252745e+01 6.7067315649478534e+00 4.6735530608476115e+00 -1 -1 0
60 18 2 -4.6100000000000002e-01 1.5643864464796245e+01 7.9248040244771056e+00 4.0919112618238405e+00 -1 0 0
197 27 4 3.1900000000000001e-01 1.2712092608334604e+01 1.2690410094800448e+00 4.2590545194596796e+00 -1 0 0
335 65 8 4.0999999999999998e-01 1.3861847107446547e+01 3.7848990860875640e+00 1.7491013518443290e+00 -1 -1 1
203 27 3 -1.3800000000000001e-01 1.3816768764028897e+01 1.5357355025671739e+00 3.5725585312951735e+00 -1 0 0
170 25 3 -1.3800000000000001e-01 1.2946468200637458e+01 5.1245908488642451e+00 6.0615784404118696e+00 -1 -1 0
333 65 7 -8.1999999999999995e-01 1.3025702435609109e+01 4.2971433251107500e+00 1.6142931227442547e+00 -1 -1 1
64 18 2 -4.6100000000000002e-01 1.5570511983723033e+01 8.0685113615478148e+00 1.4537983504795322e+00 -1 0 0
115 21 2 -4.6100000000000002e-01 1.4803270663011302e+01 1.0734843199099289e+00 7.0943072332439270e+00 -1 0 0
297 53 7 -8.1999999999999995e-01 1.5939148403116276e+01 6.5198579656288276e+00 6.9027275988053400e+00 -2 0 0
156 24 6 -5.8799999999999997e-01 6.1175964886087120e-01 5.0815271049660673e+00 1.4058860299448222e+01 0 0 -1
256 39 8 4.0999999999999998e-01 1.9907759068675275e+00 3.7236853004801382e+00 1.2155210772939400e+01 1 -1 -1
255 39 7 -8.1999999999999995e-01 2.6379860952249765e+00 2.9734084462137513e+00 1.2286884279201709e+01 1 -1 -1
257 39 8 4.0999999999999998e-01 2.4158691113218316e+00 2.6890542800669128e+00 1.3234557945063100e+01 1 -1 -1
37 16 2 -4.6100000000000002e-01 4.1444736146621439e+00 3.1348677649850281e+00 9.4813712550236708e+00 0 0 -1
41 16 3 -1.3800000000000001e-01 4.0044420200594484e+00 5.8429710389102292e+00 1.0985542289354614e+01 0 0 -1
7 7 1 8.0000000000000004e-01 4.1102478079890608e+00 1.6419468760092064e+00 1.1499015977519859e+01 0 0 -1
304 55 8 4.0999999999999998e-01 8.7050799215787622e-01 4.5518999398033975e+00 1.0453538829516139e+01 0 0 0
159 24 5 9.1100000000000003e-01 3.7444796047812107e-01 6.1055934081151628e+00 1.5394653583208479e+01 0 0 -1
163 24 4 3.1900000000000001e-01 5.6102065468530660e-01 7.7887962314796706e+00 1.4809699393264111e+01 0 0 -1
324 62 7 -8.1999999999999995e-01 2.7690893285151152e+00 2.0190215716815461e+00 1.5105272355546910e+01 0 0 -1
108 21 5 9.1100000000000003e-01 8.5527375396476768e-01 4.8163115189726585e-01 8.6058157735580494e+00 0 0 0
325 62 8 4.0999999999999998e-01 2.1409353170431626e+00 1.2632291823792929e+00 1.5451411812980821e+01 0 0 -1
248 36 8 4.0999999999999998e-01 3.6631121058934628e+00 4.7927826956743420e+00 1.4480980383315520e+01 0 -1 -2
247 36 8 4.0999999999999998e-01 4.8246747143900546e+00 3.9426443187056548e+00 1.5156762225513216e+01 0 -1 -2
246 36 7 -8.1999999999999995e-01 4.0433644982260324e+00 4.4882111633954089e+00 1.5408690116590504e+01 0 -1 -2
87 19 3 -1.3800000000000001e-01 4.9935259822630398e+00 7.3962602032871931e+00 1.3486923514732558e+01 0 -1 -1
43 16 4 3.1900000000000001e-01 5.1797753678509082e+00 5.4359093946453418e+00 1.0466719772278626e+01 0 0 -1
326 62 8 4.0999999999999998e-01 2.5957379806413901e+00 2.7550325787991405e+00 1.5745377570188097e+01 0 0 -1
305 55 8 4.0999999999999998e-01 1.3686095214014418e+00 5.8990121946895213e+00 9.6965271299040054e+00 0 0 0
303 55 7 -8.1999999999999995e-01 1.4674613205131988e+00 4.8937695093872682e+00 9.7040915024367234e+00 0 0 0
160 24 2 -4.6100000000000002e-01 1.5271449451915884e+00 5.9012800058713628e+00 1.6271402270263369e+01 0 0 -1
109 21 2 -4.6100000000000002e-01 2.2501248494769448e+00 8.5027842784901464e-01 8.8925621284247729e+00 0 0 0
39 16 5 9.1100000000000003e-01 5.1486186961892804e+00 4.1478194196734792e+00 9.1956311770981642e+00 0 0 -1
98 20 3 -1.3800000000000001e-01 1.1420056522561559e+00 7.5117924547923245e+00 1.0842580618035377e+01 0 -1 -1
233 31 8 4.0999999999999998e-01 4.5468243355630236e+00 1.0668241497316622e+00 1.4888921804419482e+01 0 -1 0
89 19 3 -1.3800000000000001e-01 4.8560967878385206e+00 7.9252581909210837e+00 1.5537731287528423e+01 0 -1 -1
214 28 2 -4.6100000000000002e-01 5.1545511512190316e+00 1.4139709168719888e-01 1.0477785483705333e+01 0 0 -1
88 19 4 3.1900000000000001e-01 5.5080268325075119e+00 8.1850916728174710e+00 1.4381558032905099e+01 0 -1 -1
2 2 1 8.0000000000000004e-01 2.3675961152960694e+00 3.0254919232194988e+00 8.3661124096656785e+00 -2 -1 0
110 21 3 -1.3800000000000001e-01 2.9158149985493914e-01 5.2936061609275253e-01 1.1114300507236022e+01 0 0 0
111 21 6 -5.8799999999999997e-01 2.5579175813535349e-01 2.0808789904164837e+00 8.3568372749825510e+00 0 0 0
162 24 3 -1.3800000000000001e-01 1.6824482983383466e+00 7.9017190932097066e+00 1.4080380232034944e+01 0 0 -1
276 46 7 -8.1999999999999995e-01 1.0681316564668737e+00 1.4962946768354699e-01 1.6289800638794343e+01 0 0 -2
15 15 2 -4.6100000000000002e-01 8.9106505085441015e+00 4.5067952470483652e+00 1.6508157999222519e+01 -1 0 -1
266 42 8 4.0999999999999998e-01 8.9824771729418860e+00 6.3880740260267832e-01 1.3482055831583752e+01 -1 2 -2
42 16 3 -1.3800000000000001e-01 6.0516653821081894e+00 6.4224292276185189e+00 1.0220541579035093e+01 0 0 -1
188 26 3 -1.3800000000000001e-01 8.4941102129351460e+00 7.8035791295415882e+00 9.4372113264381277e+00 -1 0 -1
229 30 8 4.0999999999999998e-01 1.0817430117858905e+01 6.9342027970308173e+00 1.3573448818790759e+01 -1 -1 -2
232 31 8 4.0999999999999998e-01 6.0766269379124145e+00 1.8228850706997510e+00 1.5319794204004442e+01 0 -1 0
228 30 7 -8.1999999999999995e-01 1.0624142765939945e+01 7.8796592153209462e+00 1.3970566574900033e+01 -1 -1 -2
44 16 3 -1.3800000000000001e-01 5.8430410785552924e+00 4.8240562629689316e+00 1.1538900702340102e+01 0 0 -1
231 31 7 -8.1999999999999995e-01 5.5428736838787040e+00 9.4870902813921998e-01 1.5115615610403230e+01 0 -1 0
279 47 7 -8.1999999999999995e-01 6.6251927675866833e+00 3.4290436760277894e+00 1.5257976784271806e+01 1 0 0
339 67 7 -8.1999999999999995e-01 5.9738742533406777e+00 2.0187374787609027e+00 1.2461889996196003e+01 -1 1 -2
185 26 3 -1.3800000000000001e-01 8.0344369166768068e+00 7.6454278645530849e+00 1.1489730610011515e+01 -1 0 -1
281 47 8 4.0999999999999998e-01 6.5699925382005544e+00 3.8315719977491431e+00 1.4332659515060056e+01 1 0 0
341 67 8 4.0999999999999998e-01 6.1746408864724289e+00 1.4154012885714282e+00 1.3290160320819963e+01 -1 1 -2
340 67 8 4.0999999999999998e-01 6.9134585317630179e+00 2.4229509051046971e+00 1.2101515193245028e+01 -1 1 -2
184 26 2 -4.6100000000000002e-01 8.7880339199349535e+00 4.8313989641206048e+00 1.0151653183122979e+01 -1 0 -1
182 26 4 3.1900000000000001e-01 9.0224945907502523e+00 7.4980358646676937e+00 1.0565174676270878e+01 -1 0 -1
183 26 5 9.1100000000000003e-01 9.7612289580608724e+00 5.8552724920336514e+00 1.0609373056362106e+01 -1 0 -1
190 26 2 -4.6100000000000002e-01 8.7378899261986369e+00 3.3835327428169024e+00 1.2814197356649176e+01 -1 0 -1
189 26 5 9.1100000000000003e-01 1.0047543913111573e+01 3.9790434885754968e+00 1.2943910860932368e+01 -1 0 -1
280 47 8 4.0999999999999998e-01 7.3535836892894100e+00 3.9033229549804584e+00 1.5750226591494901e+01 1 0 0
206 27 3 -1.3800000000000001e-01 1.0550502191958927e+01 1.8797494816299305e+00 1.6365962105154484e+01 -1 0 -1
220 28 2 -4.6100000000000002e-01 8.7486347828370103e+00 5.4610477144743130e-01 1.0877974488849441e+01 0 0 -1
192 26 3 -1.3800000000000001e-01 1.0925174547232849e+01 2.8640307500031916e+00 1.0767907459376582e+01 -1 0 -1
40 16 2 -4.6100000000000002e-01 6.5756655635743710e+00 3.6455011260305987e+00 9.0151915637438371e+00 0 0 -1
219 28 5 9.1100000000000003e-01 8.7635370059546087e+00 4.0583728451878393e-01 9.4304041943353880e+00 0 0 -1
86 19 3 -1.3800000000000001e-01 6.7564566022569075e+00 7.7853560582269203e+00 1.4508495398709005e+01 0 -1 -1
186 26 6 -5.8799999999999997e-01 1.0021927811646695e+01 5.5813214589700619e+00 1.2333131328644498e+01 -1 0 -1
230 30 8 4.0999999999999998e-01 1.0305770797254384e+01 7.6518786638916083e+00 1.4932393482598568e+01 -1 -1 -2
217 28 2 -4.6100000000000002e-01 8.9610720102784249e+00 1.6312990959199263e+00 8.5816111997810598e+00 0 0 -1
187 26 2 -4.6100000000000002e-01 1.0585254582134912e+01 4.3120727354271580e+00 1.4265984794248293e+01 -1 0 -1
208 27 4 3.1900000000000001e-01 1.0732648116067175e+01 5.5849948174354225e-01 1.6161444138422500e+01 -1 0 -1
264 42 7 -8.1999999999999995e-01 8.0168073044401567e+00 2.5255682222771425e-01 1.3611432812812327e+01 -1 2 -2
216 28 6 -5.8799999999999997e-01 7.1349440747703667e+00 1.6163057831322358e-01 8.9599118976676237e+00 0 0 -1
155 24 3 -1.3800000000000001e-01 1.6166314480625601e+01 1.7950916234063450e+00 1.3451989272925339e+01 -1 0 -1
154 24 2 -4.6100000000000002e-01 1.6519076897458184e+01 4.0456952589230868e+00 1.1976988187914115e+01 -1 0 -1
250 37 8 4.0999999999999998e-01 1.4413916295864375e+01 7.9257340364897617e+00 1.6019989364912590e+01 0 0 -1
153 24 5 9.1100000000000003e-01 1.5819937534073647e+01 4.3550615167478854e+00 1.3257509905808833e+01 -1 0 -1
332 64 8 4.0999999999999998e-01 1.2522208664216112e+01 6.6524222023374682e+00 9.6908209939586971e+00 -1 0 0
95 20 3 -1.3800000000000001e-01 1.5971069527900537e+01 7.6529736679559415e+00 9.5944663103528445e+00 -1 -1 -1
330 64 7 -8.1999999999999995e-01 1.3083485331217352e+01 7.5344325781527974e+00 9.6953478109157647e+00 -1 0 0
331 64 8 4.0999999999999998e-01 1.3128912116452055e+01 7.8134728534552478e+00 8.7159845086192220e+00 -1 0 0
285 49 7 -8.1999999999999995e-01 1.2991896620557018e+01 8.1041122574689233e+00 1.2339095595964629e+01 -1 1 0
157 24 2 -4.6100000000000002e-01 1.5662300625670358e+01 5.9452932675839918e+00 1.5969480546956165e+01 -1 0 -1
161 24 3 -1.3800000000000001e-01 1.6217028066148128e+01 8.2813067110305436e+00 1.3947228595212426e+01 -1 0 -1
150 24 2 -4.6100000000000002e-01 1.4615219641320571e+01 5.1650175193014158e+00 1.3464192291089851e+01 -1 0 -1
180 26 2 -4.6100000000000002e-01 1.1102906365603097e+01 5.6463637938449320e+00 1.0116262488490772e+01 -1 0 -1
152 24 4 3.1900000000000001e-01 1.5460480623929111e+01 2.7568339913453022e+00 1.4107285894507010e+01 -1 0 -1
119 21 3 -1.3800000000000001e-01 1.4660290249647153e+01 4.3004264595535791e+00 9.1147400393700764e+00 -1 0 0
151 24 3 -1.3800000000000001e-01 1.5956402087521106e+01 2.6442691469127211e+00 1.5308379164828265e+01 -1 0 -1
209 27 3 -1.3800000000000001e-01 1.1245046827813841e+01 2.7657626584516187e-01 1.5007317281810368e+01 -1 0 -1
194 26 3 -1.3800000000000001e-01 1.1380338521133432e+01 1.8263390224054230e+00 1.2633812139777197e+01 -1 0 -1
193 26 4 3.1900000000000001e-01 1.1279558612273155e+01 3.0575712520216745e+00 1.2113633159236198e+01 -1 0 -1
290 50 8 4.0999999999999998e-01 1.3114485965632250e+01 5.5131489472307544e+00 1.4731948273735281e+01 -3 -1 0
289 50 8 4.0999999999999998e-01 1.1566967639522673e+01 5.0196857457234376e+00 1.5136776569303180e+01 -3 -1 0
286 49 8 4.0999999999999998e-01 1.3615648345558276e+01 7.3153696490647215e+00 1.2635402189408433e+01 -1 1 0
118 21 4 3.1900000000000001e-01 1.4222683840956339e+01 3.0430519713314448e+00 8.7937120115201797e+00 -1 0 0
191 26 3 -1.3800000000000001e-01 1.2472835381300245e+01 3.5915545846868686e+00 1.2208083265894722e+01 -1 0 -1
116 21 3 -1.3800000000000001e-01 1.4096560838269989e+01 2.3097271253980303e+00 9.8935556684849288e+00 -1 0 0
158 24 3 -1.3800000000000001e-01 1.4215085421842172e+01 2.4901726274833020e+00 1.4086459698539738e+01 -1 0 -1
287 49 8 4.0999999999999998e-01 1.2970307691437545e+01 7.9223265356773069e+00 1.1304520341044382e+01 -1 1 0
288 50 7 -8.1999999999999995e-01 1.2390884426965034e+01 5.5874362570084726e+00 1.5394800285897608e+01 -3 -1 0
117 21 3 -1.3800000000000001e-01 1.2964230674297637e+01 3.1262090383584411e+00 8.3047153125400079e+00 -1 0 0
103 20 4 3.1900000000000001e-01 1.0200366751328123e+00 1.1958592599756271e+01 7.5634262890124226e+00 0 -1 -1
56 17 3 -1.3800000000000001e-01 4.0562436458805804e+00 1.2419215168682655e+01 3.8377072284386093e+00 -1 -1 0
211 28 3 -1.3800000000000001e-01 4.5924741522165018e+00 1.5284914158388492e+01 7.9351909449440807e+00 0 -1 -1
58 17 4 3.1900000000000001e-01 5.2601930531826815e+00 1.2084519102300078e+01 3.3637126434416063e+00 -1 -1 0
102 20 3 -1.3800000000000001e-01 1.8476340985203459e+00 1.0971935932180148e+01 7.1569569264597339e+00 0 -1 -1
68 18 3 -1.3800000000000001e-01 7.9766816274448293e-01 1.0497218085574596e+01 1.9497540986783282e+00 0 0 0
59 17 3 -1.3800000000000001e-01 5.1385700615854546e+00 1.2514635047282141e+01 2.1080697767511221e+00 -1 -1 0
65 18 3 -1.3800000000000001e-01 1.1028054506409977e+00 1.0013008835032219e+01 3.9511114998236043e+00 0 0 0
105 21 2 -4.6100000000000002e-01 5.9464393737867671e-01 1.6242502325875229e+01 7.4624287451586593e+00 0 -1 0
101 20 3 -1.3800000000000001e-01 7.9893859660102029e-01 1.2827539741873592e+01 6.5251026670460748e+00 0 -1 -1
260 40 8 4.0999999999999998e-01 2.8552384244403584e+00 1.4938043361219748e+01 1.5983781716839291e+00 0 -2 0
258 40 7 -8.1999999999999995e-01 3.0535778377355198e+00 1.4766492283932431e+01 6.4523063793892321e-01 0 -2 0
57 17 3 -1.3800000000000001e-01 5.2717779280156343e+00 1.0696244674072206e+01 3.3753929446853714e+00 -1 -1 0
61 18 3 -1.3800000000000001e-01 1.8408244620044871e+00 8.5758310876778037e+00 2.4370857498041607e+00 0 0 0
62 18 4 3.1900000000000001e-01 8.3214057960128396e-01 9.4343071263592524e+00 2.7901517817850134e+00 0 0 0
259 40 8 4.0999999999999998e-01 2.5137080008411377e+00 1.5497980655692221e+01 1.2842380480238247e-01 0 -2 0
218 28 3 -1.3800000000000001e-01 6.3271652857226677e+00 1.3811304390136877e+01 8.2768831155836722e+00 0 -1 -1
201 27 6 -5.8799999999999997e-01 1.1047934843413861e+01 1.6527945465765772e+01 2.3429932316045785e+00 -1 -1 0
329 63 8 4.0999999999999998e-01 9.0203289196125080e+00 1.5664187947512618e+01 2.2975173688808739e+00 0 -1 1
55 17 2 -4.6100000000000002e-01 6.4229489317590129e+00 1.4324439083761764e+01 4.4776867491907781e+00 -1 -1 0
29 15 3 -1.3800000000000001e-01 9.8447562563051090e+00 1.0227756951633951e+01 7.5643757705957571e-01 -1 0 0
235 32 8 4.0999999999999998e-01 7.9446896454644778e+00 1.4627571107879959e+01 2.7664042893713137e-01 -1 -1 -2
28 15 4 3.1900000000000001e-01 8.5710888286188034e+00 9.7938584879322139e+00 5.8457038349211410e-01 -1 0 0
52 17 2 -4.6100000000000002e-01 6.9645947018507011e+00 1.2020554831806349e+01 5.2943205289506796e+00 -1 -1 0
54 17 5 9.1100000000000003e-01 6.5839108310785690e+00 1.2876587767310577e+01 4.1440250114269652e+00 -1 -1 0
312 58 7 -8.1999999999999995e-01 8.1418377672343247e+00 9.5787640557094456e+00 6.1777153385932024e+00 0 -2 -1
51 17 6 -5.8799999999999997e-01 7.8900590232853425e+00 1.2922013401153940e+01 3.0539181234035815e+00 -1 -1 0
45 17 2 -4.6100000000000002e-01 9.3542888372414517e+00 1.0874520017945876e+01 3.7043169837283414e+00 -1 -1 0
13 13 1 8.0000000000000004e-01 9.2879753429271030e+00 8.8215430940306057e+00 4.6333420371003742e+00 -1 0 -1
48 17 5 9.1100000000000003e-01 9.4976124151178531e+00 1.2283827355023414e+01 3.5312564841303589e+00 -1 -1 0
53 17 3 -1.3800000000000001e-01 9.8152901227479710e+00 1.4497974385192791e+01 4.8768034507722779e+00 -1 -1 0
314 58 8 4.0999999999999998e-01 7.5338324519550426e+00 1.0373902068444707e+01 5.9493265060935201e+00 0 -2 -1
49 17 2 -4.6100000000000002e-01 1.0308463664094729e+01 1.2755549817625180e+01 2.3980135526675062e+00 -1 -1 0
47 17 4 3.1900000000000001e-01 1.0031048000568903e+01 1.3149485748085132e+01 5.0113489695394753e+00 -1 -1 0
50 17 3 -1.3800000000000001e-01 9.4235143952291676e+00 1.2787299412457092e+01 6.1686718323290020e+00 -1 -1 0
26 15 3 -1.3800000000000001e-01 7.8024906843476884e+00 1.0791128017505946e+01 9.2410170069768438e-01 -1 0 0
328 63 8 4.0999999999999998e-01 8.0796531462607142e+00 1.4218609777288254e+01 2.0482299190476301e+00 0 -1 1
327 63 7 -8.1999999999999995e-01 8.3815976327284840e+00 1.5177066774950088e+01 1.6788775097810320e+00 0 -1 1
239 33 8 4.0999999999999998e-01 7.1769968127463590e+00 1.5881905584734652e+01 5.2418804102448160e+00 1 -1 -1
221 28 3 -1.3800000000000001e-01 1.0130205006988890e+01 1.5542302652716094e+01 7.5910239269848212e+00 0 -1 -1
313 58 8 4.0999999999999998e-01 7.6943190211119630e+00 8.9609907795530201e+00 6.7838393657543001e+00 0 -2 -1
237 33 7 -8.1999999999999995e-01 7.7410173315578898e+00 1.6579701215074071e+01 5.6995190442251520e+00 1 -1 -1
338 66 8 4.0999999999999998e-01 1.3051664882436825e+01 8.6945656445765120e+00 2.2306263650757763e+00 0 0 0
300 54 7 -8.1999999999999995e-01 1.6452429674846464e+01 1.6534785276225307e+01 4.3774592064034188e+00 1 -3 0
1 1 1 8.0000000000000004e-01 1.1209018540295773e+01 1.3072481488375464e+01 5.3548771258794603e-01 0 0 0
175 25 2 -4.6100000000000002e-01 1.1102921040632307e+01 9.3353030076241410e+00 5.5221998024113264e+00 -1 -1 0
270 44 7 -8.1999999999999995e-01 1.2752518912999099e+01 1.1477594730831612e+01 7.6939378410591419e-01 -1 -1 -1
99 20 5 9.1100000000000003e-01 1.6045210789057307e+01 1.1306767281770187e+01 8.2758616990591900e+00 -1 -1 -1
6 6 1 8.0000000000000004e-01 1.5421069096193417e+01 1.5937727407339819e+01 6.1208168307966480e+00 -1 -1 0
70 18 2 -4.6100000000000002e-01 1.5052773330470512e+01 1.0380406729042331e+01 5.2250176900481380e+00 -1 0 0
301 54 8 4.0999999999999998e-01 1.5866229721115380e+01 1.6562383855103484e+01 3.5571704259012464e+00 1 -3 0
204 27 5 9.1100000000000003e-01 1.1899358882163822e+01 1.6464518302599387e+01 8.3920713920394829e-01 -1 -1 0
69 18 5 9.1100000000000003e-01 1.4301348463038966e+01 1.0912304021723539e+01 4.0688804240044441e+00 -1 0 0
63 18 5 9.1100000000000003e-01 1.5790925304611205e+01 8.5955429112699395e+00 2.7921962945318879e+00 -1 0 0
174 25 5 9.1100000000000003e-01 1.1707907333342126e+01 9.1352525850235384e+00 6.8332524239382684e+00 -1 -1 0
177 25 3 -1.3800000000000001e-01 1.1544760656379959e+01 1.1710036178303683e+01 7.4993396852191969e+00 -1 -1 0
294 52 7 -8.1999999999999995e-01 1.5291111890197669e+01 1.5896607370059368e+01 1.8914995658097533e+00 -3 -2 0
46 17 3 -1.3800000000000001e-01 1.1351568179838235e+01 1.2919987767074090e+01 5.2428142735763412e+00 -1 -1 0
284 48 8 4.0999999999999998e-01 1.3287030905015333e+01 1.5090074550057206e+01 7.3173876116310170e+00 -1 -2 1
66 18 6 -5.8799999999999997e-01 1.4637384158375404e+01 9.8288288056515309e+00 2.7333625284400114e+00 -1 0 0
283 48 8 4.0999999999999998e-01 1.4348781292553888e+01 1.3897272489607765e+01 7.6693230617002568e+00 -1 -2 1
178 25 4 3.1900000000000001e-01 1.1337318498086024e+01 1.0492444037458807e+01 7.9885944873894630e+00 -1 -1 0
205 27 2 -4.6100000000000002e-01 1.1923125237347625e+01 1.4994670029059755e+01 9.0643560250362054e-01 -1 -1 0
282 48 7 -8.1999999999999995e-01 1.4222592077928399e+01 1.4796355659603297e+01 7.1618897939776067e+00 -1 -2 1
74 18 3 -1.3800000000000001e-01 1.6355225529922357e+01 1.2505677903594494e+01 3.4115008736654215e+00 -1 0 0
272 44 8 4.0999999999999998e-01 1.2826087213956933e+01 1.0904187058353475e+01 1.6472172378979717e+00 -1 -1 -1
67 18 2 -4.6100000000000002e-01 1.2846785863009835e+01 1.0881688023188637e+01 4.1283489346543067e+00 -1 0 0
97 20 2 -4.6100000000000002e-01 1.5813989353835789e+01 9.8776630892290012e+00 7.9440026382220523e+00 -1 -1 -1
73 18 4 3.1900000000000001e-01 1.4995154546475707e+01 1.2547107204029311e+01 3.6487462453919699e+00 -1 0 0
72 18 3 -1.3800000000000001e-01 1.4416679688860668e+01 1.3100782504560486e+01 2.6129893891437126e+00 -1 0 0
71 18 3 -1.3800000000000001e-01 1.4927356761743033e+01 1.3385356641616632e+01 4.6785197336402380e+00 -1 0 0
296 52 8 4.0999999999999998e-01 1.5567538588252479e+01 1.5179092528320757e+01 1.2017602408603643e+00 -3 -2 0
251 37 8 4.0999999999999998e-01 1.3208890670576803e+01 8.8521265911636142e+00 1.7336098780293599e-01 0 0 0
172 25 2 -4.6100000000000002e-01 1.3139189495574843e+01 8.8755898324469289e+00 6.8590258220820708e+00 -1 -1 0
271 44 8 4.0999999999999998e-01 1.3603087634025414e+01 1.1411177804817624e+01 1.8818607552056826e-01 -1 -1 -1
295 52 8 4.0999999999999998e-01 1.4557544821313938e+01 1.6499824873910356e+01 1.5205964910529826e+00 -3 -2 0
100 20 2 -4.6100000000000002e-01 1.4890243399550537e+01 1.2227781810181447e+01 8.0186935594068416e+00 -1 -1 -1
196 27 3 -1.3800000000000001e-01 1.2771419237398314e+01 1.6576484616638716e+01 4.7613741747519951e+00 -1 -1 0
11 11 1 8.0000000000000004e-01 1.5199802773378577e+01 8.4654435155855428e+00 6.1823229418473185e+00 -1 -1 -1
316 59 8 4.0999999999999998e-01 1.4075964335950983e+00 1.2938975620043905e+01 1.0761590024151330e+01 -1 0 -3
315 59 7 -8.1999999999999995e-01 1.9906665615336834e+00 1.3260717694823301e+01 1.1586339309208153e+01 -1 0 -3
5 5 1 8.0000000000000004e-01 2.8705738599977906e+00 1.1612731679200392e+01 1.2539071328243899e+01 1 -1 -1
90 20 2 -4.6100000000000002e-01 1.4828254033195745e+00 1.0425812442447766e+01 1.1470055933494789e+01 0 -1 -1
85 19 2 -4.6100000000000002e-01 3.9268249173135383e+00 1.0131419762163253e+01 1.3727117137677114e+01 0 -1 -1
93 20 5 9.1100000000000003e-01 1.8854124933160740e-01 9.9615579090096524e+00 1.0873165822082335e+01 0 -1 -1
317 59 8 4.0999999999999998e-01 2.0544432572822853e+00 1.4278800106481089e+01 1.1658278565709033e+01 -1 0 -3
132 22 3 -1.3800000000000001e-01 1.9672285969649927e+00 1.3168985297789559e+01 1.4607438597487498e+01 0 -1 -1
133 22 4 3.1900000000000001e-01 1.2877952553877685e+00 1.2182480301500087e+01 1.5235268320444550e+01 0 -1 -1
76 19 3 -1.3800000000000001e-01 4.1075279564796663e+00 9.4015833705598411e+00 1.0212048314688841e+01 0 -1 -1
215 28 3 -1.3800000000000001e-01 4.4566056072347813e+00 1.3818371272235193e+01 9.5099372465849434e+00 0 -1 -1