variable        infile index data.mol
variable        mytemp index 298

# set up simulation
#read_restart    ${NAME}.restart.*

# the following information is saved to restart files
units           real
atom_style      full
boundary        p p p
pair_style      lj/cut/coul/long 7
kspace_style    pppm 0.0001
pair_modify     tail yes
pair_modify     mix arithmetic
special_bonds   amber

bond_style      harmonic
angle_style     harmonic
dihedral_style  charmm
#improper_style  cvff

read_data       ${infile}
read_data       data.mol
  orthogonal box = (0 0 0) to (16.5843 16.5843 16.5843)
  1 by 2 by 2 MPI processor grid
  reading atoms ...
  341 atoms
  reading velocities ...
  341 velocities
  scanning bonds ...
  4 = max bonds/atom
  scanning angles ...
  6 = max angles/atom
  scanning dihedrals ...
  12 = max dihedrals/atom
  reading bonds ...
  274 bonds
  reading angles ...
  389 angles
  reading dihedrals ...
  420 dihedrals
  4 = max # of 1-2 neighbors
  6 = max # of 1-3 neighbors
  12 = max # of 1-4 neighbors
  14 = max # of special neighbors
  special bonds CPU = 0.000548618 secs
  read_data CPU = 0.0134153 secs

#replicate       3 4 4

neighbor        2.0 bin
neigh_modify    delay 0 every 1 check yes page 1000000 one 20000
timestep        1.0
#velocity        all create ${mytemp} 314159265 mom yes rot yes dist gaussian

## end information that is saved to restart files

## create velocity profile
#minimize       1e-4 1e-6 10000 10000
#velocity        all create  ${mytemp} 314159265 units box
velocity        all zero linear units box
dump            DUMP all custom 1000 ${NAME}.lammpstrj id type x y z mol
dump            DUMP all custom 1000 mol.lammpstrj id type x y z mol
thermo_style    custom step vol temp press ke pe etotal enthalpy evdwl ecoul epair ebond eangle edihed eimp emol elong etail lx ly lz xy xz yz pxy pxz pyz pxx pyy pzz
thermo          1000
#
## thermostat and integrator

#fix             NPT all npt temp ${mytemp} ${mytemp} 100.0 iso 1.0 1.0 100.0
fix             NVT all nvt temp ${mytemp} ${mytemp} 100.0
fix             NVT all nvt temp 298 ${mytemp} 100.0
fix             NVT all nvt temp 298 298 100.0

restart         50000 restart.${NAME}.1 restart.${NAME}.2
restart         50000 restart.mol.1 restart.${NAME}.2
restart         50000 restart.mol.1 restart.mol.2
run             10000000
PPPM initialization ...
  using 12-bit tables for long-range coulomb (src/kspace.cpp:332)
  G vector (1/distance) = 0.374366
  grid = 12 12 12
  stencil order = 5
  estimated absolute RMS force accuracy = 0.0274815
  estimated relative force accuracy = 8.27598e-05
  using double precision KISS FFT
  3d grid and FFT values/proc = 3211 432
Neighbor list info ...
  update every 1 steps, delay 0 steps, check yes
  max neighbors/atom: 20000, page size: 1000000
  master list distance cutoff = 9
  ghost atom cutoff = 9
  binsize = 4.5, bins = 4 4 4
  1 neighbor lists, perpetual/occasional/extra = 1 0 0
  (1) pair lj/cut/coul/long, perpetual
      attributes: half, newton on
      pair build: half/bin/newton
      stencil: half/bin/3d/newton
      bin: standard
Per MPI rank memory allocation (min/avg/max) = 17.94 | 17.94 | 17.94 Mbytes
Step Volume Temp Press KinEng PotEng TotEng Enthalpy E_vdwl E_coul E_pair E_bond E_angle E_dihed E_impro E_mol E_long E_tail Lx Ly Lz Xy Xz Yz Pxy Pxz Pyz Pxx Pyy Pzz 
       0    4561.3294    282.87323    1051.6716    286.68506   -742.96377   -456.27871   -386.31909    -81.52385    4914.2044   -1622.7891    111.18586    146.86215    621.77731            0    879.82532   -6455.4697   -48.271156      16.5843      16.5843      16.5843            0            0            0    2356.9897    768.26539    3635.0487   -4092.3856    237.11215    7010.2883 
    1000    4561.3294    305.76776    2194.1756    309.88811   -773.01059   -463.12248   -317.16085   -78.679049    4896.9999   -1638.7841    105.13084    132.03297    628.60972            0    865.77353   -6457.1049   -48.271156      16.5843      16.5843      16.5843            0            0            0   -1690.0092    2230.6386   -3678.6085   -1620.3824    7557.8022      645.107 
    2000    4561.3294    294.60146     1274.624    298.57134   -756.39694    -457.8256   -373.03467   -78.084913    4889.4515   -1641.4919    106.26678    163.27142     615.5568            0      885.095   -6452.8585   -48.271156      16.5843      16.5843      16.5843            0            0            0   -218.58586   -4262.9186    1350.0436    2223.2039    178.04711    1422.6209 
    3000    4561.3294    319.09777   -827.93558    323.39775   -752.81028   -429.41253   -484.48872   -80.416084    4910.6618   -1624.5529    109.25026    148.14136    614.35099            0    871.74261   -6454.7986   -48.271156      16.5843      16.5843      16.5843            0            0            0     -518.377    4739.8688    796.79419     1788.264   -5084.1863    812.11558 
    4000    4561.3294     292.5526   -1396.3423    296.49487   -758.74258    -462.2477   -555.13562   -70.755813     4894.239   -1629.7818    102.19256    149.33996    619.50667            0     871.0392    -6453.265   -48.271156      16.5843      16.5843      16.5843            0            0            0    28.574872   -1282.8861   -1214.3602    582.99516    2554.6473   -7326.6693 
    5000    4561.3294    315.13406    786.76053    319.38062   -734.33379   -414.95317   -362.61604   -78.183678    4921.1652   -1610.5991    108.32554    150.52438    617.41536            0    876.26529   -6453.5806   -48.271156      16.5843      16.5843      16.5843            0            0            0    1071.7819    132.21861   -3159.1453   -3241.4283   -1691.7204    7293.4303 
    6000    4561.3294    284.78754    3472.5459    288.62517    -726.8103   -438.18513   -207.18335   -97.394677     4932.235   -1612.8182    106.66381    159.19429    620.14984            0    886.00793   -6447.6586   -48.271156      16.5843      16.5843      16.5843            0            0            0   -3377.7208    2344.0293     787.1375    8401.0608    1404.9984     611.5785 
    7000    4561.3294    307.58102   -2529.8561     311.7258   -753.57104   -441.84524   -610.13711    -89.02058    4888.4784   -1656.6747    103.21184    179.86846    620.02336            0    903.10366   -6456.1326   -48.271156      16.5843      16.5843      16.5843            0            0            0   -1762.5288    2172.8842    5490.2869   -3732.7688   -5289.2437    1432.4443 
    8000    4561.3294    272.03714   -791.25693    275.70295   -762.50922   -486.80627   -539.44251   -62.599075    4877.4829   -1638.8383    109.66863    145.39914    621.26133            0     876.3291   -6453.7221   -48.271156      16.5843      16.5843      16.5843            0            0            0   -2208.9221    -452.9673    207.55765    -1892.824    1056.6035   -1537.5503 
    9000    4561.3294    282.71162     3843.454    286.52128   -739.56584   -453.04456   -197.36912   -79.134373    4906.4438   -1630.0392    102.78616    156.99813    630.68911            0     890.4734   -6457.3487   -48.271156      16.5843      16.5843      16.5843            0            0            0    -3138.722    2806.7788   -2121.3965   -548.39446    8753.0562    3325.7004 
   10000    4561.3294    311.37374   -3533.1835    315.56963   -724.86623    -409.2966   -644.33213   -95.779206    4914.8376   -1635.1636    123.72101    168.44934      618.127            0    910.29735   -6454.2219   -48.271156      16.5843      16.5843      16.5843            0            0            0    370.15864   -2369.1584   -3816.8023   -2225.1322     1452.018   -9826.4363 
   11000    4561.3294    307.20477    595.76331    311.34448   -736.59576   -425.25128   -385.61973   -85.084047    4885.2171   -1654.1875    124.18312    169.95446    623.45418            0    917.59176   -6454.3205   -48.271156      16.5843      16.5843      16.5843            0            0            0   -1393.4539    2955.2719   -1658.1582    -593.5025    2189.9015    190.89098 
   12000    4561.3294    315.59506   -776.63838    319.84784   -763.97043    -444.1226   -495.78638   -75.791388    4887.1109   -1644.1087    108.59759     147.6513    623.88939            0    880.13828   -6455.4282   -48.271156      16.5843      16.5843      16.5843            0            0            0    542.85868     2801.973   -1848.6203    2855.5226   -3314.4586   -1870.9792 
   13000    4561.3294    279.62021   -4364.1685    283.38821   -753.58477   -470.19656   -760.51114   -57.223643    4878.4187   -1635.8205    104.53451     161.6659    616.03535            0    882.23575   -6457.0156   -48.271156      16.5843      16.5843      16.5843            0            0            0    1398.4178    1477.5712    3261.8948   -6768.3711    -6758.606    434.47147 
   14000    4561.3294       293.76    306.31667    297.71854   -755.76421   -458.04567   -437.66878   -82.050621     4878.174   -1661.2529    98.976163    172.05155    634.46101            0    905.48872   -6457.3763   -48.271156      16.5843      16.5843      16.5843            0            0            0    1980.3541   -942.72626   -485.77247    2119.6774   -1226.0386    25.311136 
   15000    4561.3294    293.43331    1197.8856    297.38745   -755.08178   -457.69433   -378.00821   -48.026571    4891.4386   -1614.0958    99.198036    135.86485    623.95116            0    859.01405   -6457.5078   -48.271156      16.5843      16.5843      16.5843            0            0            0    2664.0257     592.2812    822.14526    1096.6879   -325.62003    2822.5889 
   16000    4561.3294    311.62474    742.39671    315.82401   -763.22902   -447.40501   -398.01906   -56.800788    4861.7126   -1650.8769    102.84328    161.95321    622.85136            0    887.64785   -6455.7887   -48.271156      16.5843      16.5843      16.5843            0            0            0   -1196.4508     6871.059    2145.1537   -2348.6264    3994.8855    580.93107 
   17000    4561.3294    303.68741   -4621.3918    307.77973   -765.73037   -457.95065    -765.3763   -78.486071    4881.7754   -1651.0672    109.66229     146.3703    629.30424            0    885.33683   -6454.3565   -48.271156      16.5843      16.5843      16.5843            0            0            0    2172.4628    1029.9634   -925.06588   -5639.1908   -3609.6162   -4615.3683 
   18000    4561.3294    316.95698   -5700.5782    321.22811   -749.17953   -427.95142   -807.16705   -84.760281    4909.0478   -1628.1236    107.68464    151.07343    620.18597            0    878.94403   -6452.4111   -48.271156      16.5843      16.5843      16.5843            0            0            0    5859.6992   -2127.7318   -1871.9429   -10300.582   -4202.3831    -2598.769 
   19000    4561.3294    287.68676   -357.81671    291.56346   -746.77409   -455.21063   -479.01342   -69.553926    4898.1379   -1629.6978    104.12081    157.00961    621.79328            0    882.92371   -6458.2818   -48.271156      16.5843      16.5843      16.5843            0            0            0    4140.7711    2725.3284   -856.92015     3001.763    791.51999   -4866.7332 
   20000    4561.3294    298.96839   -1911.2644    302.99711   -750.08973   -447.09261   -574.23434   -68.235968    4879.5868   -1647.1552    117.43781    157.34275    622.28487            0    897.06544    -6458.506   -48.271156      16.5843      16.5843      16.5843            0            0            0    110.02965    1801.0416    1287.6745    -2286.748   -1069.4174   -2377.6278 
   21000    4561.3294    297.63865   -4832.5181    301.64946   -718.78423   -417.13478   -738.60505   -92.183259    4929.7118   -1619.3618    127.88014     151.2108    621.48661            0    900.57755   -6456.8903   -48.271156      16.5843      16.5843      16.5843            0            0            0    705.78299   -311.60099     1939.891   -4914.7629    -1731.787   -7851.0044 
   22000    4561.3294     283.9662   -1847.4564    287.79276    -747.0887   -459.29593     -582.193   -80.541618    4893.9102   -1643.8843    110.66095    157.82149    628.31316            0     896.7956   -6457.2529   -48.271156      16.5843      16.5843      16.5843            0            0            0   -126.80061   -865.18837    44.001138   -1148.8889    332.51052   -4725.9909 
   23000    4561.3294     301.7335   -187.48025    305.79949    -731.4633   -425.66381   -438.13543    -86.47225    4910.2969   -1631.8422    124.44085    148.74777    627.19032            0    900.37893   -6455.6669   -48.271156      16.5843      16.5843      16.5843            0            0            0   -921.00989   -136.42168   -2032.4718   -1351.6978    -466.5515    1255.8086 
   24000    4561.3294     277.0316   -2474.4088    280.76471   -787.22078   -506.45607   -671.05946   -84.508409    4882.4847   -1655.6346    93.373298     159.1092     615.9313            0     868.4138   -6453.6109   -48.271156      16.5843      16.5843      16.5843            0            0            0    1504.4398   -3047.3374    1834.0877    1865.9846   -732.78071   -8556.4302 
   25000    4561.3294     323.8311    2471.9811    328.19486   -733.92651   -405.73165   -241.28975    -53.01179    4869.6455   -1641.8827    116.34298    172.21125    619.40191            0    907.95614   -6458.5164   -48.271156      16.5843      16.5843      16.5843            0            0            0   -600.27331    2446.2001   -2871.3258    4364.4667   -2565.9893     5617.466 
   26000    4561.3294    311.97619     223.1345     316.1802   -769.42845   -453.24824   -438.40482   -74.464477     4894.635   -1633.1592    102.89733    139.76327    621.07015            0    863.73076   -6453.3298   -48.271156      16.5843      16.5843      16.5843            0            0            0    3042.0563    2981.3902     6224.595   -2074.3286     3294.915   -551.18293 
   27000    4561.3294    323.71117    1071.5423    328.07331   -752.67066   -424.59735   -353.31588   -85.747536    4910.0335   -1632.9563    109.47786    151.52419    619.28362            0    880.28567   -6457.2423   -48.271156      16.5843      16.5843      16.5843            0            0            0    1846.3769    1059.0829    3042.4286    3988.1749    1511.7682   -2285.3163 
   28000    4561.3294    312.80348   -1889.7312    317.01864   -746.24996   -429.23132   -554.94061   -90.728082    4912.4686   -1634.1223    114.96492    157.98361    614.92384            0    887.87237   -6455.8628   -48.271156      16.5843      16.5843      16.5843            0            0            0    4263.7185    -2204.935    3097.1291   -5036.3889   -392.03926   -240.76537 
   29000    4561.3294     283.4176   -2888.2228    287.23677   -752.66542   -465.42865   -657.55991   -49.002633    4865.1676   -1638.0815    101.01744    162.55372    621.84492            0    885.41608   -6454.2465   -48.271156      16.5843      16.5843      16.5843            0            0            0    1864.1303    731.44394   -239.69289    -4018.966    149.14533   -4794.8478 
   30000    4561.3294    301.36558   -649.56804     305.4266   -745.96912   -440.54251   -483.75328   -77.630954    4891.0503   -1639.3362    117.73131    153.09185    622.54394            0    893.36709   -6452.7556   -48.271156      16.5843      16.5843      16.5843            0            0            0    867.52483    5830.5083   -737.38079   -1926.7242    799.44374   -821.42362 
   31000    4561.3294    315.45649   -924.37562     319.7074    -761.5192    -441.8118    -503.3034   -88.770499    4895.4856   -1646.1222    103.27217     158.7212    622.60959            0    884.60296   -6452.8373   -48.271156      16.5843      16.5843      16.5843            0            0            0    6185.7442    2850.4676    752.34335   -474.12918   -1764.9774   -534.02026 
   32000    4561.3294    311.81178   -2476.9658    316.01358   -738.78035   -422.76677   -587.54026   -85.230451    4896.9779   -1643.5849    119.61977    160.15785    625.02696            0    904.80458   -6455.3324   -48.271156      16.5843      16.5843      16.5843            0            0            0    1651.1499    -72.55386   -1886.2202   -1870.4811   -3602.9432   -1957.4732 
   33000    4561.3294    320.18052    1330.6484    324.49509   -716.94487   -392.44978   -303.93198   -71.152787    4891.3129   -1634.8698    122.78068    170.65947    624.48479            0    917.92493   -6455.0299   -48.271156      16.5843      16.5843      16.5843            0            0            0   -397.20601   -505.12721    1391.6354   -3940.4335    2353.5712    5578.8074 
   34000    4561.3294    302.51592     2328.156    306.59245   -759.21925    -452.6268   -297.75249   -69.757041    4888.6919    -1637.669    102.39013    155.01277    621.04684            0    878.44974   -6456.6039   -48.271156      16.5843      16.5843      16.5843            0            0            0    2200.2765   -1030.5647    503.03925     1805.441     4700.383    478.64406 
   35000    4561.3294    317.45895    105.28242    321.73684   -747.34183   -425.60498   -418.60135    -78.17479    4900.6458   -1632.1106    107.26224    157.27131    620.23525            0     884.7688   -6454.5817   -48.271156      16.5843      16.5843      16.5843            0            0            0    469.08126   -1425.4483   -662.13741     2328.985   -2722.3735    709.23573 
   36000    4561.3294    284.04896     5951.665    287.87664   -743.09511   -455.21847   -59.299964   -57.286096     4880.956   -1635.2899    115.92045    157.15221    619.12218            0    892.19483   -6458.9598   -48.271156      16.5843      16.5843      16.5843            0            0            0    1302.1103   -782.59098   -203.39836    6702.3722    4100.7624    7051.8604 
   37000    4561.3294    305.88524    2464.4709    310.00717   -720.99258   -410.98542   -247.04312   -83.265429    4910.8048   -1628.9914    111.97055    181.18478    614.84349            0    907.99883   -6456.5308   -48.271156      16.5843      16.5843      16.5843            0            0            0   -1935.1422   -6818.3458    -1617.218    284.57874    5199.1633    1909.6706 
   38000    4561.3294    298.88992   -885.04216    302.91759   -752.95442   -450.03683   -508.91188   -77.782334     4878.672   -1653.5091    106.21841    174.81791     619.5184            0    900.55472   -6454.3988   -48.271156      16.5843      16.5843      16.5843            0            0            0     3329.985    1281.1217    3182.3015    553.20519    755.32977   -3963.6614 
   39000    4561.3294    320.14062   -1588.1213    324.45465   -748.15988   -423.70523   -529.35073   -92.598089    4907.7791   -1637.2875    102.68375    161.33569    625.10815            0    889.12759   -6452.4684   -48.271156      16.5843      16.5843      16.5843            0            0            0    38.538326   -3441.3979    1474.0555   -2363.3639    -1002.267   -1398.7332 
   40000    4561.3294    305.57959   -2536.6828     309.6974   -733.04911   -423.35171   -592.09771   -100.07777    4916.6139   -1639.6919    119.28276    164.08214    623.27786            0    906.64276    -6456.228   -48.271156      16.5843      16.5843      16.5843            0            0            0   -2127.6863   -1915.0426    3140.1787   -3806.4915   -1153.6909   -2649.8661 
   41000    4561.3294    290.63434     571.0436    294.55076   -759.53748   -464.98673   -426.99959   -96.145847    4921.2563    -1628.539    104.20144    143.47662     621.3235            0    869.00156   -6453.6495   -48.271156      16.5843      16.5843      16.5843            0            0            0    3817.8855    -1238.474   -3187.3656   -2498.9871     3917.841    294.27684 
   42000    4561.3294     285.5368    989.69188    289.38453    -749.4636   -460.07908   -394.24249   -88.003158    4914.8033   -1631.1972    104.70187    165.50321    611.52846            0    881.73355   -6457.9973   -48.271156      16.5843      16.5843      16.5843            0            0            0   -838.37293    5762.9204    2713.5937    2135.5198   -719.85313     1553.409 
   43000    4561.3294    296.42193   -2160.5906    300.41634   -731.62746   -431.21112    -574.9386   -49.627575    4864.3619   -1636.9463    126.05739    178.78316    600.47832            0    905.31887   -6451.6807   -48.271156      16.5843      16.5843      16.5843            0            0            0    2199.7463   -2701.6349    -848.5619     1050.024   -1974.0851   -5557.7106 
   44000    4561.3294    303.49823    3736.3801      307.588   -751.67389   -444.08589   -195.53325   -67.199271    4886.4453   -1637.0694    98.028053      160.379     626.9885            0    885.39556   -6456.3155   -48.271156      16.5843      16.5843      16.5843            0            0            0   -2563.0278    778.99969   -1533.3531    2201.9045    5422.6894    3584.5466 
   45000    4561.3294    282.64073    1772.7478    286.44943   -737.45474   -451.00531   -333.07803   -85.888009    4909.1484   -1626.5663    109.43929    156.26131    623.41096            0    889.11156   -6449.8267   -48.271156      16.5843      16.5843      16.5843            0            0            0   -2401.4431     2659.503    -5639.294   -1280.8924     2167.822    4431.3138 
   46000    4561.3294    285.54093    2106.6466    289.38871   -722.20336   -432.81465   -292.67565   -70.829455    4890.2257   -1636.3357      107.649    186.02019    620.46314            0    914.13232    -6455.732   -48.271156      16.5843      16.5843      16.5843            0            0            0    4285.9323    3678.7731    1314.5513     2979.346   -2642.3495    5982.9435 
   47000    4561.3294    296.09454    -792.3889    300.08453   -738.99832   -438.91379   -491.62533   -62.228858     4892.433   -1625.5113    101.93344    164.32198    620.25755            0    886.51296   -6455.7154   -48.271156      16.5843      16.5843      16.5843            0            0            0    472.98198   -2174.4401    2907.8563    -2778.786    3528.5359   -3126.9166 
   48000    4561.3294    304.99251    882.80525    309.10241   -745.72593   -436.62353   -377.89728   -69.980848     4883.394    -1640.268    100.15258    176.25801    618.13151            0     894.5421   -6453.6812   -48.271156      16.5843      16.5843      16.5843            0            0            0    2005.9343     -1924.04    1619.0274    187.04641    3592.5906   -1131.2213 
   49000    4561.3294     302.0537    622.47636      306.124   -748.79368   -442.66968   -401.26111    -73.38909    4897.6683   -1630.8752     99.63826    162.62701    619.81625            0    882.08152   -6455.1544   -48.271156      16.5843      16.5843      16.5843            0            0            0   -1616.8524   -2939.9062   -1162.7918    1875.4175    2371.1591   -2379.1475 
   50000    4561.3294    291.90344   -1758.8602    295.83696   -713.31702   -417.48007   -534.48351   -54.930304    4887.7526   -1618.9293    124.68252    159.80585    621.12391            0    905.61228   -6451.7516   -48.271156      16.5843      16.5843      16.5843            0            0            0   -2351.1786   -992.18792    1366.1466    -5864.359   -724.56336    1312.3417 
   51000    4561.3294     294.8275    991.04513    298.80042   -750.76498   -451.96456   -386.03795   -104.80693    4927.2821   -1629.3842    105.85591    152.36363    620.39969            0    878.61923   -6451.8594   -48.271156      16.5843      16.5843      16.5843            0            0            0    1863.4859    1835.3088    4669.5458   -840.38624    3627.9387    185.58288 
   52000    4561.3294    310.02273   -2540.1159    314.20041    -738.0269   -423.82649   -592.80087    -92.33033    4927.7765   -1614.9537    108.35813    142.19096    626.37776            0    876.92685   -6450.3999   -48.271156      16.5843      16.5843      16.5843            0            0            0    490.29821    1539.5272   -2865.6363   -4747.7942   -892.78761   -1979.7658 
   53000    4561.3294    313.79109    4515.3811    318.01955   -743.78972   -425.77016   -125.39658   -76.574796    4917.7936   -1612.9129    97.702756    154.17517    617.24523            0    869.12316   -6454.1317   -48.271156      16.5843      16.5843      16.5843            0            0            0      296.171    4162.7655    3710.4019    8474.6389    414.95746    4656.5471 
   54000    4561.3294    295.02721   -4427.1831    299.00283   -714.06692   -415.06409   -709.57054   -100.03522     4910.819   -1642.9713    130.15327    172.17394     626.5772            0    928.90441   -6453.7551   -48.271156      16.5843      16.5843      16.5843            0            0            0   -1596.8675   -5175.3461     27.70638   -4897.0134   -4681.9235   -3702.6124 
   55000    4561.3294    297.10266    5298.3392    301.10625   -778.76229   -477.65605   -125.19828   -83.689598    4894.5803   -1648.3196    94.985827     151.2512    623.32033            0    869.55735   -6459.2103   -48.271156      16.5843      16.5843      16.5843            0            0            0    607.24197   -467.25014    624.86677    8435.1145    6599.7439     860.1593 
   56000    4561.3294    316.56925    2581.4692    320.83515   -753.87628   -433.04113   -261.31583   -86.290779    4901.9354   -1640.5151    102.41447    154.80274    629.42159            0     886.6388   -6456.1597   -48.271156      16.5843      16.5843      16.5843            0            0            0   -3113.7161   -1540.9462    2897.9821    3401.1504     3913.083    430.17431 
   57000    4561.3294    297.15729    553.39956    301.16161   -756.50223   -455.34062    -418.5272   -63.779189     4858.744   -1660.8935    104.32148    177.09554    622.97429            0    904.39131   -6455.8584   -48.271156      16.5843      16.5843      16.5843            0            0            0    943.91445   -1145.6063    2330.6766    286.91362    8079.6191   -6706.3341 
   58000    4561.3294    291.68781    1693.8864    295.61842   -755.79572    -460.1773   -347.49606   -71.488387    4894.8234   -1631.9438    106.79085    153.37107    615.98615            0    876.14807   -6455.2787   -48.271156      16.5843      16.5843      16.5843            0            0            0    -1841.775    2833.2258    44.245478   -1913.5058    1881.1168    5114.0481 
   59000    4561.3294    310.83798   -2336.8242    315.02665   -759.29412   -444.26747   -599.71841   -84.154795    4914.4947   -1627.4595    104.01362    146.57325    617.57856            0    868.16543   -6457.7995   -48.271156      16.5843      16.5843      16.5843            0            0            0   -2829.9527   -3008.4564     -1269.56    -4229.704   -4927.4699    2146.7015 
   60000    4561.3294    333.85906    2771.9139    338.35795   -728.60337   -390.24542    -205.8513   -71.797761     4911.242   -1613.0252    104.31866    162.72676    617.37644            0    884.42185   -6452.4695   -48.271156      16.5843      16.5843      16.5843            0            0            0    3996.6714    1127.0036   -566.25181   -3340.7961    2348.8885    9307.6491 
   61000    4561.3294    305.28753    3113.9219    309.40141   -770.37008   -460.96867   -253.82339   -70.626693    4887.3269    -1636.045    93.816336    150.95629    620.90234            0    865.67497   -6452.7452   -48.271156      16.5843      16.5843      16.5843            0            0            0    3979.1666   -1313.7452    1653.5259    2757.6266    4188.0555    2396.0835 
   62000    4561.3294    283.44026   -3231.1173    287.25973   -770.12977   -482.87004   -697.81143   -106.59409    4918.3443   -1643.2696     92.76452    162.82489    617.55044            0    873.13985   -6455.0198   -48.271156      16.5843      16.5843      16.5843            0            0            0    2548.4994   -387.20613    1377.8421    206.87474   -5574.2188   -4326.0077 
   63000    4561.3294    300.27862    272.52596      304.325   -759.84718   -455.52217   -437.39312   -70.049256    4885.1454     -1639.99    101.43794    157.11564    621.58921            0    880.14279   -6455.0862   -48.271156      16.5843      16.5843      16.5843            0            0            0    -1118.776   -1152.4835    5935.6593    1056.0173    509.06034   -747.49976 
   64000    4561.3294    286.31662    627.04391    290.17486   -738.72044   -448.54558   -406.83317   -81.279706    4895.6633   -1636.7814    100.08871    177.38063    620.59158            0    898.06092   -6451.1649   -48.271156      16.5843      16.5843      16.5843            0            0            0   -3143.9452   -621.56854   -167.83373    951.40142    385.49165    544.23864 
   65000    4561.3294    298.59619    1442.0663    302.61989   -732.90707   -430.28717   -334.35759   -64.149547    4878.6632   -1640.5953    106.37342    177.89219    623.42259            0    907.68819   -6455.1089   -48.271156      16.5843      16.5843      16.5843            0            0            0    1189.9159    3880.0527    189.34481    3826.3791   -10.954927     510.7748 
   66000    4561.3294    296.99396     2892.391    300.99608    -738.4337   -437.43763   -245.02909   -85.764757    4916.0465   -1622.7305    99.888083    162.00416    622.40456            0    884.29681   -6453.0123   -48.271156      16.5843      16.5843      16.5843            0            0            0   -1086.9598   -1240.1195    1281.4529    1521.5826    3146.8086    4008.7818 
   67000    4561.3294    305.64168   -3469.8129    309.76033   -753.95572   -444.19539   -675.01536   -84.988648    4928.1811   -1612.1825     93.74321    147.34955    617.13406            0    858.22682    -6455.375   -48.271156      16.5843      16.5843      16.5843            0            0            0    1809.5797    490.20858    602.59922   -4287.6048   -272.98446   -5848.8495 
   68000    4561.3294    292.99923    808.27009    296.94752   -773.11353   -476.16601   -422.39801   -102.16223    4907.2112   -1651.5598     101.1203    163.08426    614.24167            0    878.44623   -6456.6087   -48.271156      16.5843      16.5843      16.5843            0            0            0    678.69203    618.05204   -1480.0912   -2491.9216    1948.0663    2968.6656 
   69000    4561.3294    302.82597    3252.0661    306.90667   -756.92274   -450.01607   -233.68112   -81.160893    4896.0634   -1641.8656    102.00482    162.81367    620.12437            0    884.94287   -6456.7681   -48.271156      16.5843      16.5843      16.5843            0            0            0   -2373.3133   -2095.7206    757.18337   -341.14936    3302.9182    6794.4293 
   70000    4561.3294    315.55801     1122.838    319.81028   -763.92181   -444.11153   -369.41775   -87.544194    4883.2816   -1655.3495    111.67437    159.32364    620.42968            0    891.42769   -6451.0869   -48.271156      16.5843      16.5843      16.5843            0            0            0    1075.6122    3067.9924   -1938.0371     5686.833   -2028.0666   -290.25236 
   71000    4561.3294    277.73501    4016.3711    281.47761   -771.58907   -490.11146   -222.93318   -86.306748    4890.2939   -1649.8365    110.50015    148.49814    619.24916            0    878.24746   -6453.8237   -48.271156      16.5843      16.5843      16.5843            0            0            0   -2060.1849   -3312.5788    5069.0913    4652.4465    1682.6259    5714.0409 
   72000    4561.3294    305.71483    1511.9515    309.83446    -746.8507   -437.01624   -336.43773   -77.484343    4896.3516   -1635.3719    104.52877    166.06988     617.9225            0    888.52115   -6454.2391   -48.271156      16.5843      16.5843      16.5843            0            0            0    877.62386   -4962.0958    1155.4403    804.52545   -1490.0803    5221.4095 
   73000    4561.3294    297.72094    507.01376    301.73286   -737.39875   -435.66589   -401.93817    -69.15339    4914.2898   -1611.1669    104.88684    154.86682    614.01447            0    873.76813   -6456.3033   -48.271156      16.5843      16.5843      16.5843            0            0            0    749.39456    3666.6782   -2108.0768     3499.879    675.35285   -2654.1905 
   74000    4561.3294    305.04009     1399.963    309.15063   -742.17179   -433.02116   -339.89239   -91.439801     4919.568   -1629.5305    94.071871    174.43648    618.85034            0    887.35869   -6457.6587   -48.271156      16.5843      16.5843      16.5843            0            0            0    2169.8315   -1542.6624    5042.5814     1029.496    2002.0478    1168.3452 
   75000    4561.3294    277.15147    2337.0592     280.8862   -749.46027   -468.57406   -313.10749   -61.454536    4884.5661   -1630.3367    100.49946    156.33006    624.04691            0    880.87644   -6453.4482   -48.271156      16.5843      16.5843      16.5843            0            0            0    973.29991    -901.1209    2365.6616     6044.489    3443.0228   -2476.3344 
   76000    4561.3294    318.53122   -2588.9622    322.82357   -743.99843   -421.17486   -593.39861   -96.637934    4921.3561   -1627.0188    102.42761    160.95745    619.63534            0     883.0204    -6451.737   -48.271156      16.5843      16.5843      16.5843            0            0            0    2338.3316    191.18169   -1656.8373    2103.6568    -5471.382   -4399.1614 
   77000    4561.3294    285.30363    -737.0039    289.14821    -749.2373   -460.08909   -509.11629   -70.974477     4901.126   -1623.8447    94.558079      165.837    614.21228            0    874.60736   -6453.9962   -48.271156      16.5843      16.5843      16.5843            0            0            0   -1903.6269    1822.5792   -1274.3335    2323.2963   -4073.2509   -461.05719 
   78000    4561.3294    291.39265   -6261.7392    295.31929   -740.78266   -445.46338   -862.00874   -84.062894    4899.1406   -1636.9372    124.86627     154.3534    616.93486            0    896.15453   -6452.0149   -48.271156      16.5843      16.5843      16.5843            0            0            0   -2165.7761    1925.9987   -704.28924   -9425.2635   -6065.1926   -3294.7615 
   79000    4561.3294    300.33669   -3966.3159    304.38385   -751.35126   -446.96741    -710.8159   -81.292578    4890.6151   -1643.3023    118.23582    152.60061    621.11466            0    891.95109   -6452.6249   -48.271156      16.5843      16.5843      16.5843            0            0            0    -75.72971    121.23197    458.19532   -2061.6631   -4643.4094   -5193.8751 
   80000    4561.3294    314.43206    795.66134    318.66917   -758.54604   -439.87688   -386.94765   -95.317738    4923.2403   -1625.7711    95.517397    159.09844    612.60925            0    867.22508   -6453.6937   -48.271156      16.5843      16.5843      16.5843            0            0            0    1980.6968    2221.2114   -3317.6541     5907.189    575.81546   -4096.0205 
   81000    4561.3294    288.84892   -1651.7401    292.74128   -757.12017   -464.37889   -574.25646   -69.294951     4862.244   -1656.4096    112.61335    171.81894    614.85712            0    899.28941   -6449.3586   -48.271156      16.5843      16.5843      16.5843            0            0            0   -753.20974    1610.7515    462.07038   -3778.1184   -3021.1218    1844.0198 
   82000    4561.3294    306.28727    958.66403    310.41462   -734.33843   -423.92381   -360.15126   -76.727374    4869.6366   -1659.6266     137.8574     163.9892    623.44153            0    925.28813   -6452.5358   -48.271156      16.5843      16.5843      16.5843            0            0            0    1469.2327     1046.452     2274.905   -3157.9854     820.5033    5213.4742 
   83000    4561.3294    299.46415   -1209.0893    303.49955   -748.34619   -444.84664   -525.27805   -72.214278    4876.8705   -1652.5545    116.15008    162.57047    625.48781            0    904.20836   -6457.2108   -48.271156      16.5843      16.5843      16.5843            0            0            0    2073.8153    1020.5885   -3461.3915     -448.592   -4327.2478     1148.572 
   84000    4561.3294    299.15361    3641.2028    303.18483   -763.95286   -460.76803   -218.54681   -71.327825    4871.5636   -1653.5392    101.63483    162.54389    625.40765            0    889.58637    -6453.775   -48.271156      16.5843      16.5843      16.5843            0            0            0    2040.9368    1926.1676   -1535.7953     8278.556    898.61426    1746.4381 
   85000    4561.3294    307.93953   -4010.6563    312.08915   -748.43802   -436.34887   -703.14699   -66.894402    4878.5405    -1640.149    106.01017    157.39826    628.30256            0      891.711   -6451.7951   -48.271156      16.5843      16.5843      16.5843            0            0            0    2924.3611   -262.74892    -2372.315   -5494.3183   -5277.6205     -1260.03 
   86000    4561.3294    271.65907   -851.32771    275.31979   -732.72034   -457.40056   -514.03284    -79.13648     4891.048   -1641.6878      112.192    176.60546    620.17001            0    908.96747   -6453.5993   -48.271156      16.5843      16.5843      16.5843            0            0            0    -141.3202   -802.19874    299.85931   -2153.8439    3985.0939   -4385.2332 
   87000    4561.3294    302.84365    1038.4398     306.9246   -743.11001   -436.18542     -367.106   -63.416495    4863.8602   -1651.5704    116.01448    159.94879    632.49716            0    908.46042   -6452.0141   -48.271156      16.5843      16.5843      16.5843            0            0            0    3820.2538    1863.9703    5316.3253    2455.9877    735.23057   -75.898864 
   88000    4561.3294    313.56499    1721.1824    317.79041   -744.87702   -427.08661   -312.58958   -64.896305    4895.8631    -1628.273    111.37894    152.32805    619.68895            0    883.39593   -6459.2397   -48.271156      16.5843      16.5843      16.5843            0            0            0   -1633.3665   -862.71559   -3167.9136    4888.2619    5711.5182    -5436.233 
   89000    4561.3294    302.19878    3284.3546    306.27103   -751.73074   -445.45971   -226.97685   -83.916148    4907.8394   -1630.1133    104.17312      152.971    621.23839            0    878.38251   -6454.0365   -48.271156      16.5843      16.5843      16.5843            0            0            0    4109.3185    1516.7002    2113.1637    6115.8215    4217.5537   -480.31152 
   90000    4561.3294    308.77139   -2222.3158    312.93222   -747.21238   -434.28016   -582.11375   -56.052879    4870.6648   -1637.8501     101.9686     170.5547    618.11444            0    890.63774    -6452.462   -48.271156      16.5843      16.5843      16.5843            0            0            0    363.21628   -896.03637    3235.4418   -2380.1531   -4893.2427    606.44841 
   91000    4561.3294    308.03544    747.37248    312.18635    -764.0107   -451.82436   -402.10741   -79.842037    4859.2408    -1675.289    102.16251    191.03848    618.07734            0    911.27833   -6454.6878   -48.271156      16.5843      16.5843      16.5843            0            0            0   -1099.3707    3726.2158   -1297.2946    83.909645   -377.84801    2536.0558 
   92000    4561.3294    295.04938    1615.6925     299.0253   -786.19057   -487.16528   -379.68568   -80.550991    4867.3056   -1667.5223    98.298187    158.11987    624.91371            0    881.33177    -6454.277   -48.271156      16.5843      16.5843      16.5843            0            0            0   -983.16869   -1892.6978    449.50771   -561.62611    5423.8315   -15.127963 
   93000    4561.3294    307.81324   -2088.6507    311.96116   -771.07469   -459.11354   -598.05541    -96.46326    4871.5355   -1678.1852    105.02833    178.04205    624.04008            0    907.11046   -6453.2574   -48.271156      16.5843      16.5843      16.5843            0            0            0   -5534.2819   -4192.4358   -2524.1169   -2423.3746   -3471.8691    -370.7085 
   94000    4561.3294    327.93487   -3345.2104    332.35393    -778.3225   -445.96858    -668.4997   -92.434819    4886.6153   -1657.3534    106.14896     148.2073    624.67459            0    879.03086   -6451.5339   -48.271156      16.5843      16.5843      16.5843            0            0            0   -3869.1826    729.01402    5789.4699   -963.92152    -1482.418   -7589.2918 
   95000    4561.3294     293.4347   -3908.9982    297.38885   -772.56743   -475.17858   -735.21418   -100.30644    4910.8947   -1641.8694    97.798375     150.7575    620.74614            0    869.30201   -6452.4577   -48.271156      16.5843      16.5843      16.5843            0            0            0    639.64436    2489.8194    1236.5313   -2654.8989   -4541.9864   -4530.1094 
   96000    4561.3294    292.76757   -241.73928    296.71274   -765.07747   -468.36473   -484.44579   -80.822667    4881.1232   -1652.1133    106.04528    153.89082    627.09976            0    887.03586   -6452.4139   -48.271156      16.5843      16.5843      16.5843            0            0            0    3856.4295   -1233.4676    4618.2017   -5229.1554    3544.1597    959.77783 
   97000    4561.3294    295.70543    2160.9075    299.69019   -760.61184   -460.92165   -317.17309   -84.626728    4897.1086   -1641.9033    106.19394    149.30331    625.79424            0    881.29149   -6454.3852   -48.271156      16.5843      16.5843      16.5843            0            0            0   -638.06888    1259.4886    -868.5024     117.4816    1950.2208    4415.0201 
   98000    4561.3294    289.26428    1340.6285    293.16224    -762.8664   -469.70416   -380.52246   -73.307039    4875.0934    -1654.926     111.8036    155.41436     624.8416            0    892.05956   -6456.7123   -48.271156      16.5843      16.5843      16.5843            0            0            0    706.58795    2085.5547    4176.3522    6161.9021    -2198.887    58.870498 
   99000    4561.3294    302.21484    44.324404    306.28731   -771.07054   -464.78323   -461.83467   -87.053729    4886.2073   -1652.2352    102.01247    154.80504    624.34713            0    881.16464   -6451.3887   -48.271156      16.5843      16.5843      16.5843            0            0            0   -3507.0477    250.96409    161.41504   -1403.5861    1616.6608   -80.101425 
  100000    4561.3294    290.32479    1847.7763    294.23704   -778.40293   -484.16589   -361.24754   -89.606122    4920.3058   -1623.2894    90.092695    129.75563    625.03811            0    844.88644    -6453.989   -48.271156      16.5843      16.5843      16.5843            0            0            0    1020.4131    1510.5761    1311.2392    4014.1863    1529.2579  -0.11516014 
  101000    4561.3294    310.46285   -2426.8559    314.64647   -763.18149   -448.53502   -609.97509   -95.735306     4898.554   -1648.9762    99.557371    169.99645    616.24087            0    885.79469   -6451.7949   -48.271156      16.5843      16.5843      16.5843            0            0            0    2674.2291    165.65818   -1512.3348   -3197.0283   -555.91576   -3527.6238 
  102000    4561.3294    312.99075    1872.8623    317.20844   -770.45232   -453.24388   -328.65676   -48.141001    4849.8966    -1656.356    107.60847     157.6736    620.62161            0    885.90369   -6458.1116   -48.271156      16.5843      16.5843      16.5843            0            0            0   -786.56875    2629.3834    2253.6961    2663.3484    1556.4007    1398.8377 
  103000    4561.3294    270.54803    149.70136    274.19378    -760.4653   -486.27152   -476.31304   -80.488431      4878.84   -1658.1782    110.62154    162.60315    624.48818            0    897.71287   -6456.5298   -48.271156      16.5843      16.5843      16.5843            0            0            0   -1827.1822   -1268.8602   -1091.4911    736.10316    837.79232   -1124.7914 
  104000    4561.3294    302.99859   -766.96968    307.08162   -782.01444   -474.93282   -525.95341   -47.651373    4842.6544   -1660.9974    113.63595    150.61133    614.73563            0    878.98292   -6456.0004   -48.271156      16.5843      16.5843      16.5843            0            0            0   -208.45442   -3726.0696    5684.0782   -2888.9853   -402.44383    990.52008 
  105000    4561.3294    289.32677    1536.6637    293.22557   -761.15833   -467.93276   -365.71034   -65.199135    4841.9009   -1675.2806    115.87611    178.45526    619.79086            0    914.12223   -6451.9823   -48.271156      16.5843      16.5843      16.5843            0            0            0   -2892.6811    600.89716    2906.5193    3387.6745    2504.6194   -1282.3028 
  106000    4561.3294    339.32102   -2988.5802    343.89351   -775.27392    -431.3804   -630.18766   -67.707337    4865.6044   -1654.6754    106.71919    151.36109    621.32119            0    879.40146   -6452.5725   -48.271156      16.5843      16.5843      16.5843            0            0            0   -4078.9807   -1465.2383   -1296.2513    2910.0982   -7215.8261   -4660.0126 
  107000    4561.3294    308.81146   -1067.6311    312.97283   -783.65851   -470.68568   -541.70697   -87.968032    4875.9365   -1668.6146    100.04781    168.32653    616.58173            0    884.95607   -6456.5831   -48.271156      16.5843      16.5843      16.5843            0            0            0    1869.1783    1840.9014   -416.42784    -1187.232   -1134.7492   -880.91213 
  108000    4561.3294    284.62898    263.70089    288.46448   -792.03238    -503.5679   -486.02591   -59.581194    4851.8375   -1660.7242    110.42519     137.8627    620.40396            0    868.69185   -6452.9805   -48.271156      16.5843      16.5843      16.5843            0            0            0   -2634.4491    2948.7789    2111.1892   -1815.3073    1561.5787    1044.8313 
  109000    4561.3294    295.21421    865.94195    299.19234   -774.95538   -475.76304   -418.15858   -79.842933    4889.5166   -1640.9699     94.12441     156.9245    614.96565            0    866.01456   -6450.6436   -48.271156      16.5843      16.5843      16.5843            0            0            0    2292.2288   -3040.5725    2776.7418   -3064.3525    6268.6109   -606.43255 
  110000    4561.3294    303.11473    854.62204    307.19933   -762.46645   -455.26712   -398.41568   -67.918802    4870.7778   -1649.7873    102.87498    155.95549    628.49043            0     887.3209   -6452.6463   -48.271156      16.5843      16.5843      16.5843            0            0            0    2127.8747   -40.485924    2895.9033   -100.58109    -722.5311    3386.9783 
  111000    4561.3294    290.56384   -2284.8287    294.47931   -783.47539   -488.99608   -640.98816    -73.21671    4877.5729   -1650.0779    95.593536     145.8999    625.10912            0    866.60256   -6454.4342   -48.271156      16.5843      16.5843      16.5843            0            0            0    1889.6084    1023.3329   -490.68196    656.10512   -4018.5378   -3492.0533 
  112000    4561.3294    293.28239    1439.4556     297.2345   -757.38094   -460.14644   -364.39053   -86.055578    4892.2416   -1648.4451    100.88271    171.12758    619.05391            0     891.0642   -6454.6312   -48.271156      16.5843      16.5843      16.5843            0            0            0     4390.208   -4353.9139     3881.255    2629.9417   -781.20041    2469.6255 
  113000    4561.3294    292.17462   -446.16207    296.11179   -776.74135   -480.62956   -510.30929   -73.681817    4858.9051   -1667.2252    115.71694     158.4696    616.29735            0    890.48389   -6452.4485   -48.271156      16.5843      16.5843      16.5843            0            0            0   -1117.9541    807.45449   -5206.9506    4357.4197   -5427.0219   -268.88407 
  114000    4561.3294    292.35498    1629.5986    296.29459   -760.20361   -463.90902   -355.50435   -49.797385    4856.4012   -1650.1367    108.99973    164.03666    616.89666            0    889.93305   -6456.7405   -48.271156      16.5843      16.5843      16.5843            0            0            0   -574.39188   -2909.1513    1482.9522    5100.5207   -1503.7354    1292.0105 
  115000    4561.3294    282.67474    -2380.751     286.4839   -751.69567   -465.21177   -623.58483   -74.143554    4880.2722   -1647.5653      116.209    159.49258    620.16802            0     895.8696   -6453.6939   -48.271156      16.5843      16.5843      16.5843            0            0            0    1017.4913    2281.9696    2159.6853   -6942.3922   -773.79354    573.93267 
  116000    4561.3294    305.59548    868.31037    309.71351   -746.66536   -436.95185   -379.18984   -55.470236    4879.3791   -1631.8701    116.28173     152.2299    616.69307            0    885.20469    -6455.779   -48.271156      16.5843      16.5843      16.5843            0            0            0    1009.0238    1447.2623    4122.0941   -1146.6264    225.43785    3526.1196 
  117000    4561.3294     304.8227    3413.3967    308.93032   -725.18184   -416.25152   -189.18449   -75.178366    4917.1199   -1611.6572    106.17694    164.65433     615.6441            0    886.47537   -6453.5988   -48.271156      16.5843      16.5843      16.5843            0            0            0   -3665.7491   -725.18656    1269.4463    5635.6307    2672.4422    1932.1171 
  118000    4561.3294    307.34718    1522.7653    311.48881   -745.74971    -434.2609   -332.96303    -87.50266    4915.4724   -1621.3446    95.914463    160.57019    619.11022            0    875.59487   -6449.3143   -48.271156      16.5843      16.5843      16.5843            0            0            0    2452.4498   -2360.1249    3447.7968    2940.9769   -5239.0343    6866.3533 
  119000    4561.3294    308.15091    3940.9161    312.30337   -757.84231   -445.53894   -183.38009   -46.548974    4857.1823   -1641.7934    108.00356    157.52406    618.42349            0    883.95111   -6452.4267   -48.271156      16.5843      16.5843      16.5843            0            0            0    3975.8201    2552.3258    2322.0965    1276.5691    1028.7603     9517.419 
  120000    4561.3294    286.05798   -681.65681    289.91273   -742.26772   -452.35499   -497.70038   -68.343323    4893.2724   -1629.4712    108.52375    154.12351    624.55627            0    887.20353   -6454.4004   -48.271156      16.5843      16.5843      16.5843            0            0            0    1613.4308    2370.2712    -1106.662    4220.9614   -4955.9367   -1309.9951 
  121000    4561.3294    274.87268    782.05054     278.5767   -763.05647   -484.47976   -432.45596    -56.09279    4855.8068   -1650.6716    105.85155    161.48121    620.28233            0    887.61509   -6450.3856   -48.271156      16.5843      16.5843      16.5843            0            0            0    1997.1144    424.27261   -18.390092    3433.9091    -2013.406     925.6486 
  122000    4561.3294    308.07378    30.922114     312.2252   -773.60774   -461.38254   -459.32553   -99.554226    4904.5557   -1651.2093    102.17914    157.63151    617.79089            0    877.60154   -6456.2107   -48.271156      16.5843      16.5843      16.5843            0            0            0   -1291.4958    651.87109    3150.1866    2849.2649   -688.11975   -2068.3788 
  123000    4561.3294    311.07062   -164.22171    315.26243    -772.1355   -456.87307   -467.79748    -75.75054    4887.5237   -1641.4557    84.847345    170.05103    614.42181            0    869.32018   -6453.2289   -48.271156      16.5843      16.5843      16.5843            0            0            0    3728.7573    2479.7578    1208.0842    1938.9001     93.39903   -2524.9643 
  124000    4561.3294    310.57696    155.38458    314.76211   -756.66312   -441.90101   -431.56447   -68.477926    4889.5572   -1632.3925    98.574107    162.80149    614.35381            0    875.72941   -6453.4718   -48.271156      16.5843      16.5843      16.5843            0            0            0   -156.86939    93.357982    1325.0249    237.82185   -3222.8958    3451.2277 
  125000    4561.3294    289.41539     1050.868    293.31538   -754.44958    -461.1342   -391.22803   -60.013635      4874.63   -1639.9106    103.10526    167.86896    614.48677            0    885.46099    -6454.527   -48.271156      16.5843      16.5843      16.5843            0            0            0   -2787.0704   -4720.2409   -760.97427   -730.30006    1653.9575    2228.9465 
  126000    4561.3294    294.66025    -2461.573    298.63092   -760.83086   -462.19994   -625.94947   -63.508763    4873.1636   -1645.4436    107.59407    161.49499    615.52368            0    884.61274   -6455.0984   -48.271156      16.5843      16.5843      16.5843            0            0            0    1987.0115    150.11336    460.86827   -3794.7188   -2782.7631   -807.23706 
  127000    4561.3294    306.91593    941.71003    311.05175   -759.53835    -448.4866   -385.84187   -56.337287    4848.1457   -1659.5944    122.89101     164.5507    612.61439            0     900.0561   -6451.4029   -48.271156      16.5843      16.5843      16.5843            0            0            0   -2463.0835    63.847698   -1340.9356   -1312.7527    5925.4735   -1787.5907 
  128000    4561.3294    318.92621    1451.4682    323.22387   -779.16468    -455.9408   -359.38578   -83.254574    4877.4782   -1658.4758    106.49015    154.76477    618.05617            0     879.3111   -6452.6994   -48.271156      16.5843      16.5843      16.5843            0            0            0   -937.49727   -2906.9803    936.99774    8055.8587   -3155.5194   -545.93452 
  129000    4561.3294    301.35669   -4808.4324     305.4176   -760.85855   -455.44095   -775.30898   -100.12827    4924.1192   -1627.4522    99.709966    151.79141     615.0923            0    866.59368   -6451.4432   -48.271156      16.5843      16.5843      16.5843            0            0            0   -1427.8112   -3058.8133    3493.7914   -1447.3275   -4830.6427   -8147.3269 
  130000    4561.3294    289.16316   -601.60876    293.05975   -746.96052   -453.90077   -493.92117   -76.320414    4885.4009   -1645.9969    93.694804    187.50043    617.84113            0    899.03637   -6455.0774   -48.271156      16.5843      16.5843      16.5843            0            0            0   -288.35041    -917.7707   -2067.5463   -2130.5936    1093.6243    -767.8569 
  131000    4561.3294    315.99771    1355.0171    320.25591   -740.37898   -420.12307    -329.9842   -80.159225    4916.0847   -1615.9847    93.201963    170.64455    611.75923            0    875.60574   -6451.9102   -48.271156      16.5843      16.5843      16.5843            0            0            0    818.47669    -2488.751     205.9245    2860.2238    3537.4196   -2332.5922 
  132000    4561.3294    304.73996    1308.1045    308.84646   -737.37263   -428.52617   -341.50803   -87.791832    4925.4865   -1610.3327    103.27184    160.26994    609.41832            0     872.9601   -6448.0274   -48.271156      16.5843      16.5843      16.5843            0            0            0   -4810.2661    860.95517    833.95059    393.04539    2328.7901     1202.478 
  133000    4561.3294    287.99759   -4476.0253    291.87848   -757.35355   -465.47508   -763.23062   -78.941388     4885.902   -1641.2539    107.70159    163.51399    612.68481            0     883.9004   -6448.2146   -48.271156      16.5843      16.5843      16.5843            0            0            0   -2165.2785    4784.6002   -756.96284   -4419.7786    -5307.661   -3700.6363 
  134000    4561.3294    295.67218    1459.9929    299.65648   -738.05538    -438.3989    -341.2768    -58.96674    4877.0187   -1631.9783    110.25677    161.65135    622.01481            0    893.92293   -6450.0302   -48.271156      16.5843      16.5843      16.5843            0            0            0    4738.0064    4477.5804   -631.52493    3775.1709     1031.439   -426.63123 
  135000    4561.3294    301.29791    -3262.703    305.35802   -754.95485   -449.59682   -666.63937   -96.298543    4899.3232   -1648.4495    108.36766    158.22402    626.90301            0    893.49468   -6451.4742   -48.271156      16.5843      16.5843      16.5843            0            0            0     -2353.41   -2156.6894    624.25751   -2446.0469    -5716.535    -1625.527 
  136000    4561.3294    273.96354    950.43378    277.65531   -743.32093   -465.66563   -402.44057   -60.856348    4898.5624   -1617.7104    103.04368    154.02431    617.32143            0    874.38942   -6455.4164   -48.271156      16.5843      16.5843      16.5843            0            0            0    288.74399    418.88744    940.20947   -1666.9762    1389.8681    3128.4095 
  137000    4561.3294    287.64235   -3125.6006    291.51845   -717.26898   -425.75053    -633.6727   -60.675579    4901.9313   -1611.1473    109.64123    159.79824    624.43888            0    893.87834   -6452.4031   -48.271156      16.5843      16.5843      16.5843            0            0            0    2982.4314    -8277.018   -1809.2804   -2205.7307   -3706.0627   -3465.0085 
  138000    4561.3294      297.024   -246.89246    301.02652   -737.57037   -436.54385   -452.96771   -83.557569    4909.2849   -1627.3608    101.37298    165.24617    623.17125            0    889.79039   -6453.0881   -48.271156      16.5843      16.5843      16.5843            0            0            0   -413.75932    654.14357    935.77081    4118.4051   -1731.5165    -3127.566 
  139000    4561.3294    277.31464   -4734.9423    281.05157   -739.98033   -458.92876   -773.90806   -96.295932    4920.4452   -1625.7232    110.03209    158.85245    616.85829            0    885.74284   -6449.8724   -48.271156      16.5843      16.5843      16.5843            0            0            0    2892.7693   -2980.9137   -404.44157   -3710.7987   -4345.8935   -6148.1345 
  140000    4561.3294    314.63171    4.6384743     318.8715   -772.50601    -453.6345   -453.32594   -74.931277     4907.684   -1619.6372    91.440109    133.07539    622.61568            0    847.13118   -6452.3899   -48.271156      16.5843      16.5843      16.5843            0            0            0    5435.3476    322.04867   -1826.6629   -3026.5392    3029.1228    11.331837 
  141000    4561.3294    278.53615    2483.2548    282.28954   -737.61131   -455.32177   -290.12992   -74.472263    4898.8093   -1624.9775     109.3254    160.73071    617.31007            0    887.36619   -6449.3145   -48.271156      16.5843      16.5843      16.5843            0            0            0    3887.7908   -1360.6517   -691.48607    1709.1473    6643.7991   -903.18212 
  142000    4561.3294    307.15768   -4048.9083    311.29676   -696.53413   -385.23737    -654.5801   -83.454257    4942.5223   -1589.1229     107.2409    167.25559    618.09233            0    892.58882    -6448.191   -48.271156      16.5843      16.5843      16.5843            0            0            0    794.02068    303.67438    3528.2051   -3896.2896   -2382.3617   -5868.0737 
  143000    4561.3294    300.64753    4343.4866    304.69888   -743.18403   -438.48515   -149.54638    -91.82539    4923.4924   -1621.4183    96.966492    166.07404     615.1937            0    878.23424   -6453.0853   -48.271156      16.5843      16.5843      16.5843            0            0            0    2626.5487   -3394.3998    3840.0074     5789.363    2161.4862    5079.6106 
  144000    4561.3294    300.41043   -2805.7744    304.45859   -748.74344   -444.28485   -630.93145    -66.48446    4873.4871   -1647.6341    111.11329    167.57735    620.20004            0    898.89067   -6454.6368   -48.271156      16.5843      16.5843      16.5843            0            0            0   -1929.1927   -1207.2327    814.59268   -2749.3372    -5902.663    234.67689 
  145000    4561.3294    285.63886    2261.0804    289.48796   -758.81727   -469.32931   -318.91702   -62.622713    4884.2123   -1630.0273    104.02882    137.62548    629.55576            0    871.21006   -6451.6169   -48.271156      16.5843      16.5843      16.5843            0            0            0    4146.7232    687.04388    -878.6486   -1087.5865    7273.7011    597.12663 
  146000    4561.3294     311.5085    145.64199    315.70621   -756.55855   -440.85235    -431.1639   -56.256549    4856.7931   -1652.5513    110.26521     166.2569    619.47066            0    895.99278   -6453.0879   -48.271156      16.5843      16.5843      16.5843            0            0            0   -667.02307   -1918.7166   -369.56033     3255.216    4418.8544   -7237.1444 
  147000    4561.3294    282.25209   -4217.0256    286.05555   -704.78481   -418.72926   -699.25554   -66.241481    4890.3597   -1627.2215    126.60199    166.40905    629.42568            0    922.43672   -6451.3397   -48.271156      16.5843      16.5843      16.5843            0            0            0   -1259.2909   -1290.7005    336.22292   -3642.6157    706.90979   -9715.3709 
  148000    4561.3294    294.47529   -2468.1298    298.44347   -755.84424   -457.40077   -621.58647   -67.561388     4885.863   -1637.8646    100.65381    161.55598    619.81059            0    882.02038   -6456.1663   -48.271156      16.5843      16.5843      16.5843            0            0            0    2271.5851    1433.2761   -394.16764   -636.18366    3564.0643    -10332.27 
  149000    4561.3294    307.70468   -398.92405    311.85113   -761.68633    -449.8352   -476.37255   -72.773215    4884.7301   -1640.8272    106.76945    149.81394    622.55746            0    879.14085   -6452.7841   -48.271156      16.5843      16.5843      16.5843            0            0            0   -706.47448    1229.9911    1867.1687    3597.9218   -4267.8552   -526.83881 
  150000    4561.3294    314.54928    4169.0233    318.78797   -754.78202   -435.99406     -158.661   -82.768758    4923.5247    -1612.574    93.554227    144.48214    619.75558            0    857.79195     -6453.33   -48.271156      16.5843      16.5843      16.5843            0            0            0    537.35924   -1623.6083    666.88081    2131.3616   -98.673965    10474.382 
  151000    4561.3294    295.62312   -4504.6523    299.60677   -776.11399   -476.50722    -776.1671   -97.435969     4911.236   -1637.3176    105.97737    128.90761    626.31866            0    861.20364   -6451.1177   -48.271156      16.5843      16.5843      16.5843            0            0            0   -783.46739    483.01249    66.886412   -1524.7802   -4720.6449   -7268.5319 
  152000    4561.3294    287.89899    4164.2466    291.77855    -780.2004   -488.42185   -211.40655    -85.97029    4904.1748   -1636.5027    88.593179    145.45218    622.25691            0    856.30228   -6454.7072   -48.271156      16.5843      16.5843      16.5843            0            0            0    1943.3017    806.21615    1519.7967    5574.4834     1206.108    5712.1486 
  153000    4561.3294    294.03361   -1502.5402    297.99584    -749.8131   -451.81727   -551.76971   -83.175838    4908.2305   -1627.4492    104.86586    156.73117    616.03903            0    877.63605   -6452.5038   -48.271156      16.5843      16.5843      16.5843            0            0            0   -3871.2379   -5892.3806    291.12759    382.41654   -1663.9963   -3226.0408 
  154000    4561.3294    298.39378    2782.0338    302.41476   -770.64406    -468.2293   -283.16199   -78.619592    4901.5607   -1632.2638    95.203712     147.2792    619.13682            0    861.61973   -6455.2049   -48.271156      16.5843      16.5843      16.5843            0            0            0   -2950.2384    5553.5287    2433.6764   -369.34046    6484.4152    2231.0267 
  155000    4561.3294      323.177    1348.6382    327.53195   -751.55104   -424.01909   -334.30456   -70.674388     4891.385   -1629.0762    96.646099    159.41159    621.46745            0    877.52514   -6449.7868   -48.271156      16.5843      16.5843      16.5843            0            0            0   -505.06728   -3942.6756   -2441.5199    2960.4776    2622.8013   -1537.3644 
  156000    4561.3294    304.15219    3427.9641    308.25076   -775.26828   -467.01752   -238.98142   -82.391763     4890.642   -1647.8647    85.977105    169.65649    616.96281            0     872.5964   -6456.1149   -48.271156      16.5843      16.5843      16.5843            0            0            0   -855.91018    1904.2242    2062.4844    2350.8081    6072.6427    1860.4415 
  157000    4561.3294    308.37968    5416.4991    312.53522   -754.43092   -441.89569   -81.577655   -76.701527    4882.3035   -1646.3084    90.117551    183.20907     618.5509            0    891.87752   -6451.9104   -48.271156      16.5843      16.5843      16.5843            0            0            0    2150.1479      1504.28   -932.78301    10360.835    762.18001    5126.4825 
  158000    4561.3294    314.60373    3752.3984    318.84314   -743.71411   -424.87097   -175.25276   -60.639545    4875.4209   -1635.8758    97.634923    176.55239    617.97437            0    892.16169   -6450.6571   -48.271156      16.5843      16.5843      16.5843            0            0            0   -225.97301   -96.197487    -1061.743    3903.3534    2143.3731    5210.4686 
  159000    4561.3294    306.85289    1458.3097    310.98786   -775.39764   -464.40978   -367.39964   -83.412881    4894.3061    -1645.228     101.4456     159.3245    609.06022            0    869.83032   -6456.1212   -48.271156      16.5843      16.5843      16.5843            0            0            0     1179.341    2979.2097    2705.6729    4002.9964   -430.11023    802.04304 
  160000    4561.3294    308.92062    591.12764    313.08345   -739.53345      -426.45   -387.12682   -61.708203    4875.4676   -1639.7574    113.82743    170.43226     615.9643            0    900.22399   -6453.5169   -48.271156      16.5843      16.5843      16.5843            0            0            0    1729.3926   -1841.1725     776.1386    4052.3596    29.004994   -2307.9817 
  161000    4561.3294    277.91179    2220.1728    281.65677   -747.60916   -465.95239   -318.26136   -73.844318    4898.7422   -1625.0515    105.22584    158.78727    613.42924            0    877.44234   -6449.9493   -48.271156      16.5843      16.5843      16.5843            0            0            0   -2281.8503    3315.7275    398.74261    1770.4392    6580.0298   -1689.9504 
  162000    4561.3294    315.55134   -2248.4906    319.80353   -735.29161   -415.48809   -565.06287   -53.365503    4873.8077   -1634.4402    118.92315    155.25694    624.96848            0    899.14857   -6454.8824   -48.271156      16.5843      16.5843      16.5843            0            0            0    592.83901    1180.6702      1907.45   -4192.6925   -1056.3584   -1496.4207 
  163000    4561.3294    313.64552    -2104.141    317.87202   -750.24096   -432.36893   -572.34126   -87.517964    4929.3502   -1611.1103     97.56787    140.91335    622.38816            0    860.86937   -6452.9425   -48.271156      16.5843      16.5843      16.5843            0            0            0   -855.27615   -3776.0214    165.38175    2684.9812    -2978.344   -6019.0604 
  164000    4561.3294    275.01046   -2450.7823    278.71634   -725.85475   -447.13841   -610.17011    -80.09251    4907.6262   -1624.5157    113.25751    163.44919    621.95429            0    898.66099   -6452.0494   -48.271156      16.5843      16.5843      16.5843            0            0            0   -3628.4328   -1000.8342   -1837.0066   -9688.4943    1986.4357    349.71176 
  165000    4561.3294    288.77929   -1040.5593    292.67071   -760.20176   -467.53105   -536.75146   -67.273843    4887.7815   -1636.0796    102.53304    154.98827    618.35653            0    875.87785   -6456.5872   -48.271156      16.5843      16.5843      16.5843            0            0            0    602.11627    476.34011    1804.3095    18.286834   -4098.6338    958.66912 
  166000    4561.3294      297.439   -3023.8062    301.44712   -733.90587   -432.45875   -633.60932    -78.49265    4926.7416   -1601.3569    109.35065    139.29834    618.80205            0    867.45104   -6449.6058   -48.271156      16.5843      16.5843      16.5843            0            0            0    2084.0731   -1004.3454    2818.9534   -1588.5299   -4919.9937    -2562.895 
  167000    4561.3294    303.63725    1893.6282    307.72889   -723.27676   -415.54787   -289.57935   -68.013697      4866.24   -1652.1183    114.17019    194.65689    620.01441            0    928.84149   -6450.3446   -48.271156      16.5843      16.5843      16.5843            0            0            0   -942.60138   -2758.8576    1574.7067   -1925.8179    5807.6715    1799.0309 
  168000    4561.3294     300.4414    -14.96588    304.48998    -767.6955   -463.20552   -464.20109   -81.945766    4905.2057   -1626.5515    99.730296    142.62154    616.50417            0      858.856   -6449.8115   -48.271156      16.5843      16.5843      16.5843            0            0            0   -3908.7073    1446.2753    1476.9498   -1009.1644    -1022.128    1986.3948 
  169000    4561.3294    286.24976    156.82541     290.1071   -727.44786   -437.34076   -426.90837   -60.725828    4885.0189   -1627.6679    104.57187    171.69566    623.95256            0    900.22009    -6451.961   -48.271156      16.5843      16.5843      16.5843            0            0            0    2123.3676   -3387.3667    2525.3373   -1027.2675    215.50496    1282.2388 
  170000    4561.3294    265.26024   -955.43034    268.83474   -746.86262   -478.02788   -541.58531   -86.565832    4906.9294   -1632.1339    113.18457    154.90471    617.18196            0    885.27124   -6452.4974   -48.271156      16.5843      16.5843      16.5843            0            0            0   -3997.7515     1195.048      1046.92   -3631.4207   -1111.5417    1876.6713 
  171000    4561.3294    281.76594    290.64432    285.56286   -713.82424   -428.26138   -408.92705   -68.979032    4913.5933   -1605.5934    104.59481    160.48697    626.68736            0    891.76914   -6450.2076   -48.271156      16.5843      16.5843      16.5843            0            0            0   -1284.4364   -4282.5701   -695.52037    -1729.692    567.38208    2034.2428 
  172000    4561.3294    299.51038   -1238.3576    303.54641   -756.59929   -453.05287   -535.43128   -89.282367    4896.7282   -1643.8383    113.17699    160.86301    613.19902            0    887.23902   -6451.2841   -48.271156      16.5843      16.5843      16.5843            0            0            0   -2862.2196   -692.01326    2138.0864     1343.954    -2313.744   -2745.2829 
  173000    4561.3294    284.77894   -1032.3001    288.61645   -753.45424   -464.83778   -533.50877   -91.406459    4913.7084   -1628.0436    99.740641    155.45245    619.39629            0    874.58939   -6450.3456   -48.271156      16.5843      16.5843      16.5843            0            0            0     666.3832     3874.745    174.58662   -3588.6194    3804.5236   -3312.8046 
  174000    4561.3294    301.72459   -1102.4459    305.79046   -758.17696    -452.3865   -525.72375   -84.149992    4892.6478   -1642.5099    110.43733    157.51532    616.38029            0    884.33294   -6451.0077   -48.271156      16.5843      16.5843      16.5843            0            0            0    -2957.226   -1693.2683    3200.0293   -3469.1322    2338.4009   -2176.6065 
  175000    4561.3294    280.47133   -1928.4291    284.25079   -775.66933   -491.41854    -619.7021   -89.946453    4893.5749   -1649.2581    102.07539    159.19856    612.31487            0    873.58882   -6452.8865   -48.271156      16.5843      16.5843      16.5843            0            0            0   -564.71961    -1509.567    -3538.735   -1194.0418   -2362.9665   -2228.2791 
  176000    4561.3294    289.38535    -2927.365    293.28493   -738.02874   -444.74381   -639.47889   -76.862504    4873.0463   -1656.4525    121.16808    178.40515    618.85054            0    918.42377   -6452.6363   -48.271156      16.5843      16.5843      16.5843            0            0            0   -4664.1645    1001.9741   -90.735126    2315.4433   -3204.9392   -7892.5991 
  177000    4561.3294     300.4839   -124.51206    304.53305   -769.81318   -465.28014   -473.56297   -53.522142    4864.7719   -1641.7398    98.616662    154.38199    618.92792            0    871.92657   -6452.9895   -48.271156      16.5843      16.5843      16.5843            0            0            0    -3788.491   -3807.2218    2107.3909   -2293.7033    5229.8947   -3309.7276 
  178000    4561.3294    314.92055   -1584.5676    319.16423   -743.72393    -424.5597    -529.9688   -68.987838    4880.9143   -1638.2887    114.43649    165.45502    614.67326            0    894.56477   -6450.2152   -48.271156      16.5843      16.5843      16.5843            0            0            0     938.4324    790.96669   -918.09345   -940.31991   -601.93106   -3211.4519 
  179000    4561.3294    294.33729    5261.4577     298.3036   -762.37844   -464.07483   -114.07051   -74.136236    4879.3759   -1652.4967    108.66812    160.32294    621.12722            0    890.11828   -6457.7364   -48.271156      16.5843      16.5843      16.5843            0            0            0   -633.27162    2017.2917    1816.2611    6947.5965     503.3492    8333.4276 
  180000    4561.3294    288.04965    2780.7299    291.93124   -749.08159   -457.15035   -272.16977    -52.80177    4869.5348   -1634.0154    102.30348    165.30614    617.32424            0    884.93386   -6450.7485   -48.271156      16.5843      16.5843      16.5843            0            0            0   -4495.5593    1008.3771      2374.16     8157.915   -404.06533    588.34004 
  181000    4561.3294    301.50336    1154.8306    305.56624   -741.99533   -436.42909   -359.60709   -63.541136    4900.9845   -1614.7584    101.47428    157.33687    613.95188            0    872.76303   -6452.2017   -48.271156      16.5843      16.5843      16.5843            0            0            0    4948.5168   -1658.2646    2586.9686     1727.145    3823.2394   -2085.8927 
  182000    4561.3294    288.77806   -1470.5569    292.66946   -702.34602   -409.67655    -507.5014   -82.609254    4927.8838   -1607.1068    105.94821    179.52806    619.28447            0    904.76074   -6452.3813   -48.271156      16.5843      16.5843      16.5843            0            0            0   -1342.3838    3478.7661   -3116.3041   -2911.9917   -852.34675   -647.33231 
  183000    4561.3294    301.85481   -1819.8941    305.92243   -776.49224   -470.56981   -591.63337   -54.577833    4849.8018   -1658.0041    101.53381    167.33945    612.63855            0    881.51182    -6453.228   -48.271156      16.5843      16.5843      16.5843            0            0            0     160.3974    -4250.753    3218.4076   -730.73054   -2677.3073   -2051.6445 
  184000    4561.3294    303.26058    1827.9365    307.34714   -730.23224    -422.8851   -301.28654   -74.747586    4896.5643   -1630.2178    100.81559    171.42981    627.74021            0    899.98561   -6452.0346   -48.271156      16.5843      16.5843      16.5843            0            0            0   -1298.1453      1032.45    483.30426    6516.8024   -2136.7602    1103.7672 
  185000    4561.3294    296.92114   -6255.4743    300.92228   -751.71018   -450.78791   -866.91651   -87.056593    4904.2389   -1636.6573     111.1245    149.07135    624.75125            0    884.94711   -6453.8396   -48.271156      16.5843      16.5843      16.5843            0            0            0   -901.88698   -1065.7818   -778.80705   -6729.0061   -8370.4942   -3666.9226 
  186000    4561.3294    264.71187    101.04112    268.27898     -750.106   -481.82702   -475.10553   -75.525697     4912.194   -1618.1393     99.19446    147.93912    620.89971            0    868.03328   -6454.8076   -48.271156      16.5843      16.5843      16.5843            0            0            0    -883.2415    10.551174    657.02429   -1800.5726   -724.89044    2828.5864 
  187000    4561.3294    321.21821    1886.7965    325.54676   -750.66653   -425.11977   -299.60571   -78.429151    4915.2913   -1616.9139    95.078785    149.41214     621.7564            0    866.24732    -6453.776   -48.271156      16.5843      16.5843      16.5843            0            0            0   -3520.5738   -1690.3885   -1370.9271    4197.9621    3109.2226   -1646.7951 
  188000    4561.3294    307.44349    921.32155    311.58642   -753.34344   -441.75703   -380.46859   -68.915827    4909.3485    -1612.628    93.001611    146.36295    619.91996            0    859.28453   -6453.0607   -48.271156      16.5843      16.5843      16.5843            0            0            0    -3106.708    1808.8693    2745.5929   -2113.1067    5981.6814     -1104.61 
  189000    4561.3294    295.40861    1432.0467    299.38936   -758.79722   -459.40786    -364.1448   -82.541153    4916.2682   -1618.9806    90.004936    146.41105    623.76735            0    860.18333   -6452.7076   -48.271156      16.5843      16.5843      16.5843            0            0            0    1068.3081    1556.3175   -249.49171    1929.8964    -796.1651    3162.4089 
  190000    4561.3294    282.35049    1561.9968    286.15528    -753.1645   -467.00923   -363.10159   -82.625457    4903.8469   -1631.5721    102.32322    156.61279    619.47155            0    878.40755   -6452.7935   -48.271156      16.5843      16.5843      16.5843            0            0            0    3861.7886    10.284749   -2863.4139    1182.1594    3659.0076   -155.17658 
  191000    4561.3294    282.26375    1794.5023    286.06737   -760.43055   -474.36318   -354.98874    -57.51792    4901.0812   -1613.2168    95.992826    138.95594    617.83746            0    852.78623   -6456.7801   -48.271156      16.5843      16.5843      16.5843            0            0            0    -3169.264    679.47744    429.36812    5218.8888   -661.98061     826.5986 
  192000    4561.3294    301.82873   -3263.7476      305.896   -741.16616   -435.27016   -652.38219   -88.102665    4888.3644   -1650.8068    113.70422    164.65324    631.28313            0     909.6406   -6451.0685   -48.271156      16.5843      16.5843      16.5843            0            0            0   -993.70726    952.97623    2357.7999   -5620.5373   -3412.8718   -757.83371 
  193000    4561.3294    282.98036    5145.4754    286.79364   -730.41558   -443.62194   -101.33302   -86.984198    4924.5943     -1619.13    90.555403    175.94424    622.21477            0    888.71442     -6456.74   -48.271156      16.5843      16.5843      16.5843            0            0            0     -29.6742     4344.205   -1137.9208    9685.1184    1569.9166    4181.3914 
  194000    4561.3294    297.23614   -149.04205    301.24152    -743.4383   -442.19678    -452.1114   -76.522102    4916.3704   -1615.6027    98.557379    153.20652    620.40048            0    872.16438    -6455.451   -48.271156      16.5843      16.5843      16.5843            0            0            0   -2637.7941    2241.4633   -1529.1828   -5394.2379   -1026.8481    5973.9598 
  195000    4561.3294    306.93979    1839.7719    311.07593   -758.63962   -447.56368   -325.17781   -85.094438    4903.1747   -1634.5708    98.624438    161.41895    615.88784            0    875.93123   -6452.6511   -48.271156      16.5843      16.5843      16.5843            0            0            0    49.520975   -82.659211   -934.44833    1556.4057   -836.51393    4799.4238 
  196000    4561.3294    295.56679   -2029.5903    299.54968   -753.81276   -454.26309   -589.27612   -91.138039       4916.5   -1628.4502    110.80329     138.8195    625.01465            0    874.63743   -6453.8122   -48.271156      16.5843      16.5843      16.5843            0            0            0   -1797.0108    5344.1999   -408.49193   -5432.2495    1465.3961   -2121.9177 
  197000    4561.3294    301.46605     2393.203    305.52843   -720.68569   -415.15725   -255.95586   -73.419796    4901.8128   -1623.6749    99.519484      175.522    627.94777            0    902.98925    -6452.068   -48.271156      16.5843      16.5843      16.5843            0            0            0   -857.11659   -1171.8107     1490.324     3063.372    3452.7418    663.49531 
[...]
 9955000    4561.3294    310.39181   -825.27505    314.57447   -763.76116   -449.18669   -504.08589   -73.906717    4882.6312   -1646.6427    110.82917    149.66074    622.39162            0    882.88153   -6455.3671   -48.271156      16.5843      16.5843      16.5843            0            0            0    2866.2178     -1755.95   -988.79211   -452.89972   -2175.2409    152.31549 
 9956000    4561.3294    325.46023    877.04247    329.84594   -768.60858   -438.76263   -380.41974   -96.732284    4906.9016   -1641.8406    102.83137    145.86598    624.53469            0    873.23204     -6452.01   -48.271156      16.5843      16.5843      16.5843            0            0            0    5026.4673     579.9207    1174.2476    6989.9806   -4990.0461    631.19288 
 9957000    4561.3294    305.31198   -1086.5816    309.42618    -781.4329   -472.00672   -544.28864   -108.15053    4915.0116   -1645.3807    96.468663    144.12098    623.35814            0    863.94778   -6452.2418   -48.271156      16.5843      16.5843      16.5843            0            0            0    1704.9184   -943.03749   -2445.9062    684.84677   -510.44267    -3434.149 
 9958000    4561.3294    307.41721     223.8071    311.55978   -754.89404   -443.33425   -428.44609   -68.192134    4871.5641   -1652.9534     102.9069    170.19455    624.95794            0     898.0594   -6456.3254   -48.271156      16.5843      16.5843      16.5843            0            0            0   -1238.2465    -458.2159     3348.274    4164.6687   -3322.8973   -170.35016 
 9959000    4561.3294    285.75267     -1154.07    289.60331   -775.30727   -485.70396   -562.47537   -69.408833    4881.2039   -1643.9124    94.058467    156.67739     617.8693            0    868.60515   -6455.7075   -48.271156      16.5843      16.5843      16.5843            0            0            0    625.44075    1535.5454    2295.5172    5173.7601   -5501.8078   -3134.1623 
 9960000    4561.3294    308.03718    2408.2768    312.18811    -722.1265   -409.93839   -249.73425   -62.581328    4893.0279   -1619.9299    125.39354    153.75257    618.65733            0    897.80344   -6450.3765   -48.271156      16.5843      16.5843      16.5843            0            0            0   -4789.4063    1440.4601   -1499.0149    3585.4025    3306.6966    332.73148 
 9961000    4561.3294    303.02421   -4757.9873    307.10759   -758.72042   -451.61283   -768.12515   -90.435096    4894.6627   -1650.9316    103.27936    159.50149    629.43028            0    892.21113   -6455.1592   -48.271156      16.5843      16.5843      16.5843            0            0            0    3622.8673   -2037.7078    1597.6056   -1343.8885    -9037.873   -3892.2005 
 9962000    4561.3294    278.36803   -1877.2868    282.11915   -723.23029   -441.11114    -565.9926     -60.4397    4884.2586   -1632.1344    118.55219    168.33299    622.01893            0    908.90411   -6455.9533   -48.271156      16.5843      16.5843      16.5843            0            0            0   -450.19122    2608.2146   -1283.0286    2371.6267   -4374.7151   -3628.7721 
 9963000    4561.3294     323.2968    3210.4888    327.65336   -748.58062   -420.92726   -207.35813   -91.433732    4937.7959   -1608.2441    94.044155    155.04436    610.57496            0    859.66348   -6454.6063   -48.271156      16.5843      16.5843      16.5843            0            0            0    2651.4767    284.99363     759.8211    3079.5295    821.16373     5730.773 
 9964000    4561.3294    296.85967   -204.30644    300.85997   -740.37619   -439.51622   -453.10715    -93.96175      4921.87   -1626.9577     95.33897    165.60794    625.63463            0    886.58154    -6454.866   -48.271156      16.5843      16.5843      16.5843            0            0            0    301.25081    377.13069   -1505.9715   -3142.8624    590.56997    1939.3731 
 9965000    4561.3294    322.71469    9354.3521    327.06341   -750.40285   -423.33944    198.93367   -88.653872    4913.2024   -1631.9732     96.81317    157.83543    626.92177            0    881.57037   -6456.5218   -48.271156      16.5843      16.5843      16.5843            0            0            0    4601.2355    1486.1186   -4609.4989    7843.4615    6254.9575    13964.637 
 9966000    4561.3294    297.45929   -2597.7821    301.46768   -765.59311   -464.12543    -636.9359   -88.458802     4900.585   -1640.1657    92.207475    157.94223    624.42286            0    874.57257   -6452.2919   -48.271156      16.5843      16.5843      16.5843            0            0            0   -1494.9225   -1566.0124   -429.51568   -900.25525    779.15222   -7672.2434 
 9967000    4561.3294     308.7082    4329.3985    312.86817   -755.59334   -442.72517   -154.72358   -54.736994    4857.3867   -1648.4626    99.834476    162.97387    630.06095            0     892.8693   -6451.1124   -48.271156      16.5843      16.5843      16.5843            0            0            0    3810.9304   -4214.1939   -4045.5029     1399.858    5933.7306     5654.607 
 9968000    4561.3294    298.79693    1290.3999    302.82334   -730.33714    -427.5138   -341.67342   -93.236955    4878.8747   -1662.8047    103.08063    202.14142    627.24548            0    932.46753   -6448.4424   -48.271156      16.5843      16.5843      16.5843            0            0            0    3230.9802    1716.9878   -60.311737   -345.39045    1617.4444    2599.1457 
 9969000    4561.3294    289.00903    2616.5453    292.90355   -758.29639   -465.39284   -291.33421   -58.002113    4862.3771   -1652.4341    98.129725    168.48981    627.51822            0    894.13775   -6456.8091   -48.271156      16.5843      16.5843      16.5843            0            0            0     1721.737   -4913.3294   -3066.2093    -2446.581    4344.4505    5951.7664 
 9970000    4561.3294     295.8321   -1236.6539    299.81856   -762.62532   -462.80676   -545.07184   -81.407775    4910.4266   -1625.3298    105.39298    144.26126    613.05027            0    862.70451   -6454.3486   -48.271156      16.5843      16.5843      16.5843            0            0            0    -1686.136   -2143.7125   -32.682347   -4899.4526   -796.78731    1986.2781 
 9971000    4561.3294    277.26432     1759.541    281.00057   -770.66971   -489.66914   -372.62041   -64.490352    4880.5176   -1638.4837    85.927366    162.96117    618.92544            0    867.81397   -6454.5109   -48.271156      16.5843      16.5843      16.5843            0            0            0    17.841865    635.32396   -988.57409     4621.574   -1709.9148    2366.9637 
 9972000    4561.3294    312.55371   -2364.2827    316.76551   -762.79203   -446.02652   -603.30406   -78.204304    4865.2488   -1666.7904    104.87763    183.88421    615.23652            0    903.99836   -6453.8349   -48.271156      16.5843      16.5843      16.5843            0            0            0    51.845085   -241.46973    2018.0635    -1864.978   -1810.6449   -3417.2251 
 9973000    4561.3294     304.1732    3376.2525    308.27206   -761.54246   -453.27041   -228.67429   -60.747601    4872.5929   -1645.4707    109.94157    158.21546    615.77119            0    883.92822    -6457.316   -48.271156      16.5843      16.5843      16.5843            0            0            0   -2144.4273     2904.921   -2407.9387    2795.9858     4154.312    3178.4596 
 9974000    4561.3294    279.37215    2034.7912     283.1368   -746.97477   -463.83796   -328.47895   -69.308646    4892.3314   -1628.3469      94.9635    161.95173    624.45692            0    881.37215   -6451.3696   -48.271156      16.5843      16.5843      16.5843            0            0            0   -2110.8855   -730.93426     -2790.91   -6508.5527    7092.7283    5520.1979 
 9975000    4561.3294    273.11783    2775.0506    276.79821   -791.20731    -514.4091   -329.80632   -66.962283    4864.3991    -1655.856    92.436619    149.65056    622.56155            0    864.64873   -6453.2928   -48.271156      16.5843      16.5843      16.5843            0            0            0     2775.243    2373.0393    275.12602   -1087.8616    3541.3647    5871.6487 
 9976000    4561.3294    299.86491    1013.3695    303.90571   -738.13113   -434.22541   -366.81373   -67.180204    4902.0032   -1617.9994    97.829814    164.68004    617.35846            0    879.86831   -6452.8224   -48.271156      16.5843      16.5843      16.5843            0            0            0   -1217.0298    772.94722    3238.2142    4108.1028    1428.5321   -2496.5263 
 9977000    4561.3294    290.61496   -1734.0601    294.53112   -769.48424   -474.95312    -590.3068   -88.450717    4889.9173   -1652.5489    104.77119    149.09715     629.1963            0    883.06463   -6454.0155   -48.271156      16.5843      16.5843      16.5843            0            0            0    114.79094    2827.7533   -2392.4662    1469.3094   -2151.5476    -4519.942 
 9978000    4561.3294    295.49497    1203.2557    299.47689   -771.80773   -472.33084   -392.28749   -60.770004    4842.8582    -1673.668    109.49049    171.40358    620.96617            0    901.86024   -6455.7562   -48.271156      16.5843      16.5843      16.5843            0            0            0   -3315.0447    74.289912    999.92551     1357.002    1649.0941    603.67115 
 9979000    4561.3294    301.81216   -292.11665    305.87921   -739.58304   -433.70383    -453.1361   -75.722892    4879.8957   -1646.7635    122.90902    154.88694    629.38451            0    907.18046   -6450.9363   -48.271156      16.5843      16.5843      16.5843            0            0            0    3204.7255   -992.25111   -1730.6791     1892.918   -2540.2056   -229.06242 
 9980000    4561.3294    307.75126   -354.40927    311.89834   -773.90089   -462.00255   -485.57867   -63.974897    4854.8953   -1664.1741    93.800583    178.93222    617.54046            0    890.27326   -6455.0945   -48.271156      16.5843      16.5843      16.5843            0            0            0   -673.01769    3214.8651   -1963.9734   -5454.3269    3439.8101    951.28899 
 9981000    4561.3294    292.22721   -2031.5844    296.16509   -762.48982   -466.32473   -601.47042   -67.358954    4867.4073   -1655.9949    106.26082    161.82297    625.42129            0    893.50508   -6456.0433   -48.271156      16.5843      16.5843      16.5843            0            0            0     924.8731    -1327.909   -696.09598   -35.556069   -7914.5895    1855.3924 
 9982000    4561.3294    291.06246    2898.5214    294.98465    -784.5707   -489.58606   -296.76972   -73.535191    4880.3942   -1647.3318    83.695472     161.8202    617.24546            0    862.76113   -6454.1909   -48.271156      16.5843      16.5843      16.5843            0            0            0   -265.22311    1770.4583   -1440.0252     3679.797    1071.8697    3943.8976 
 9983000    4561.3294    315.80519    4070.0452    320.06079   -746.90754   -426.84675   -156.09793   -76.339427    4896.6706   -1631.4907    110.27284    154.88441     619.4259            0    884.58315   -6451.8218   -48.271156      16.5843      16.5843      16.5843            0            0            0    1877.6657   -1524.4136   -3330.4298    874.75047     2506.976    8828.4091 
 9984000    4561.3294    321.50542    1803.4832    325.83783   -780.88407   -455.04623   -335.07437   -70.737101    4908.7984    -1618.713     78.05996     145.8849    613.88408            0    837.82894   -6456.7743   -48.271156      16.5843      16.5843      16.5843            0            0            0    -3515.737   -2280.9235   -3663.4999    2735.4202   -522.43911    3197.4684 
 9985000    4561.3294    281.12225   -3854.5632    284.91049   -747.39045   -462.47996    -718.8944   -83.653427    4893.5503   -1645.3261    120.65242    163.54933    613.73394            0    897.93568    -6455.223   -48.271156      16.5843      16.5843      16.5843            0            0            0   -1747.5186   -2114.0003    719.33797   -202.25598   -5462.0075    -5899.426 
 9986000    4561.3294    291.54071    105.77434    295.46934   -780.43946   -484.97012   -477.93377   -86.288786    4888.7289   -1654.5063    100.98432    160.55046    612.53208            0    874.06686   -6456.9465   -48.271156      16.5843      16.5843      16.5843            0            0            0   -110.59354    2547.5426    2082.8649    3201.3763   -2708.4783   -175.57496 
 9987000    4561.3294    303.84229    4006.3515    307.93669   -736.94823   -429.01154   -162.49978   -65.974456    4918.2234   -1602.8689    102.11278    147.00234    616.80555            0    865.92067   -6455.1178   -48.271156      16.5843      16.5843      16.5843            0            0            0    1050.3639   -136.00316   -5067.5654    4703.8484    2043.5577    5271.6485 
 9988000    4561.3294    285.25344    3313.6672    289.09735    -769.9717   -480.87436   -260.44156   -80.050837    4902.1216    -1634.931    92.395435    155.69161    616.87227            0    864.95931   -6457.0017   -48.271156      16.5843      16.5843      16.5843            0            0            0    207.62716   -3204.1228    1511.4658    2602.1668   -1707.3237    9046.1585 
 9989000    4561.3294    287.91645   -3161.1537    291.79624   -752.98882   -461.19258   -671.47983    -79.86608    4901.1175   -1627.0566    102.76726    152.10785    619.19265            0    874.06776    -6448.308   -48.271156      16.5843      16.5843      16.5843            0            0            0   -5425.8594    106.86484    497.26667   -4896.0021   -1504.7461    -3082.713 
 9990000    4561.3294    295.69145    5364.0801    299.67602   -737.18132    -437.5053     -80.6743   -70.979405    4910.3395   -1616.8792    86.262189    178.61658    614.81911            0    879.69788   -6456.2394   -48.271156      16.5843      16.5843      16.5843            0            0            0    4427.7422   -260.18889    2638.8121    6479.1653    9453.3946     159.6804 
 9991000    4561.3294    298.93999    1658.0082    302.96833   -779.20267   -476.23434    -365.9398   -67.580084    4864.1847   -1654.9748    92.304969    165.60001     617.8671            0    875.77208   -6451.5794   -48.271156      16.5843      16.5843      16.5843            0            0            0    1562.8942   -1689.7311   -3074.8557   -1381.9284    1844.2363    4511.7167 
 9992000    4561.3294    295.51416    4844.8582    299.49634   -735.28915   -435.79281   -113.50165   -80.707104    4881.8613   -1650.2917    98.905752    198.02036    618.07645            0    915.00256   -6451.4459   -48.271156      16.5843      16.5843      16.5843            0            0            0    75.872143    3407.3192    4425.3132    2451.9526    6650.5596    5432.0624 
 9993000    4561.3294    265.45685    4071.0475    269.03399   -742.57814   -473.54415   -202.72866   -50.717384    4894.2517   -1615.0874    93.524741    160.18415    618.80035            0    872.50924   -6458.6217   -48.271156      16.5843      16.5843      16.5843            0            0            0    1691.7059    4715.0501   -1595.2363    5436.5087    3009.5148    3767.1192 
 9994000    4561.3294    303.76483    162.71155    307.85819   -757.12972   -449.27154   -438.44759    -52.27399    4872.2474   -1637.0294    100.40097    162.53106    616.96762            0    879.89965   -6457.0028   -48.271156      16.5843      16.5843      16.5843            0            0            0    3769.0184   -2.3962479     362.5472   -2035.9474    -572.2804    3096.3624 
 9995000    4561.3294     317.7066    -3714.588    321.98783   -776.72244   -454.73462    -701.8376   -64.254717    4869.2006   -1648.9407    101.89841    155.96445    614.35539            0    872.21825   -6453.8866   -48.271156      16.5843      16.5843      16.5843            0            0            0    555.22267   -3221.4064   -852.96057    -1272.341   -6476.2897   -3395.1334 
 9996000    4561.3294    274.14765    1371.6979     277.8419   -756.85436   -479.01246   -387.76395   -39.630545    4845.1621   -1646.1803    100.80545    166.22722    622.29322            0    889.32589   -6451.7118   -48.271156      16.5843      16.5843      16.5843            0            0            0    -5358.881     1633.576    -1860.968    69.003136    7091.3611   -3045.2705 
 9997000    4561.3294    300.32885    2165.7546    304.37591   -750.34515   -445.96924   -301.89824   -65.067227    4892.8362   -1623.5055    96.980839    159.78658    616.39289            0    873.16031   -6451.2745   -48.271156      16.5843      16.5843      16.5843            0            0            0   -4082.4553   -1448.7063   -851.53993    4946.6539   -1213.1465    2763.7565 
 9998000    4561.3294    293.85909   -6885.1483    297.81896   -747.27895   -449.45999   -907.47596   -76.989854    4890.0055   -1637.7586    112.10047    164.98873    613.39043            0    890.47963   -6450.7743   -48.271156      16.5843      16.5843      16.5843            0            0            0    4144.1184    5135.6199   -3509.0363   -4472.4103    -8223.661   -7959.3735 
 9999000    4561.3294    269.56866    1927.0071    273.20121   -749.92622   -476.72501   -348.53605   -68.663842    4911.0215   -1610.9678     93.08086    152.27372    615.68697            0    861.04155   -6453.3254   -48.271156      16.5843      16.5843      16.5843            0            0            0   -1808.7215   -306.77599    -645.0486     3776.415   -1484.2787    3488.8849 
10000000    4561.3294     309.3739   -1627.4292    313.54284   -768.53701   -454.99416   -563.25451   -79.606443    4897.7926   -1637.3872    91.440529     157.6527    619.75693            0    868.85016   -6455.5733   -48.271156      16.5843      16.5843      16.5843            0            0            0    1780.4504    885.51496    1281.7998   -1648.3526   -260.94589    -2972.989 
Loop time of 5870.59 on 4 procs for 10000000 steps with 341 atoms

Performance: 147.174 ns/day, 0.163 hours/ns, 1703.406 timesteps/s
93.0% CPU use with 4 MPI tasks x 1 OpenMP threads

MPI task timing breakdown:
Section |  min time  |  avg time  |  max time  |%varavg| %total
---------------------------------------------------------------
Pair    | 1429       | 1666.7     | 1848.1     | 438.6 | 28.39
Bond    | 175.18     | 181.56     | 189.58     |  38.4 |  3.09
Kspace  | 2784       | 2962.9     | 3184.1     | 309.0 | 50.47
Neigh   | 164.46     | 165.44     | 166.4      |   6.9 |  2.82
Comm    | 734.77     | 759.82     | 772.59     |  53.5 | 12.94
Output  | 3.4379     | 3.4917     | 3.6512     |   4.9 |  0.06
Modify  | 43.078     | 47.293     | 50.422     |  46.1 |  0.81
Other   |            | 83.43      |            |       |  1.42

Nlocal:    85.25 ave 92 max 75 min
Histogram: 1 0 0 0 1 0 0 0 0 2
Nghost:    1732.25 ave 1796 max 1672 min
Histogram: 1 0 1 0 0 0 0 1 0 1
Neighs:    9677.25 ave 11377 max 7403 min
Histogram: 1 0 0 0 0 1 0 1 0 1

Total # of neighbors = 38709
Ave neighs/atom = 113.516
Ave special neighs/atom = 5.85924
Neighbor list builds = 333870
Dangerous builds = 0


write_restart   restart.${NAME}
write_restart   restart.mol
PPPM initialization ...
  using 12-bit tables for long-range coulomb (src/kspace.cpp:332)
  G vector (1/distance) = 0.374366
  grid = 12 12 12
  stencil order = 5
  estimated absolute RMS force accuracy = 0.0274815
  estimated relative force accuracy = 8.27598e-05
  using double precision KISS FFT
  3d grid and FFT values/proc = 3211 432
write_data	data.*
PPPM initialization ...
  using 12-bit tables for long-range coulomb (src/kspace.cpp:332)
  G vector (1/distance) = 0.374366
  grid = 12 12 12
  stencil order = 5
  estimated absolute RMS force accuracy = 0.0274815
  estimated relative force accuracy = 8.27598e-05
  using double precision KISS FFT
  3d grid and FFT values/proc = 3211 432
Total wall time: 1:37:51
