LAMMPS data file via write_data, version 3 Mar 2020, timestep = 10000000

341 atoms
8 atom types
274 bonds
5 bond types
389 angles
8 angle types
420 dihedrals
6 dihedral types

0.0000000000000000e+00 1.6584299999999999e+01 xlo xhi
0.0000000000000000e+00 1.6584299999999999e+01 ylo yhi
0.0000000000000000e+00 1.6584299999999999e+01 zlo zhi

Masses

1 6.941
2 16
3 19
4 12.01
5 32.06
6 14.01
7 16
8 1.008

Pair Coeffs # lj/cut/coul/long

1 0.0182661 2.126
2 0.209859 2.96
3 0.0609584 3.118
4 0.109326 3.4
5 0.249833 3.564
6 0.169886 3.25
7 0.155323 3.165
8 0 0

Bond Coeffs # harmonic

1 492.67 1.466
2 363.556 1.344
3 248.733 1.782
4 256.929 1.752
5 529.23 1.012

Angle Coeffs # harmonic

1 41.2526 108.48
2 45.27 121.88
3 43.0716 107.06
4 81.1647 109.67
5 71.2115 107.16
6 39.3938 103.12
7 109.646 119.18
8 37.9249 113.24

Dihedral Coeffs # charmm

1 0.143897 3 0 0
2 0.143897 3 0 0
3 0.499666 3 180 0
4 6.79545 1 180 0
5 0.499666 3 180 0
6 6.79545 1 180 0

Atoms # full

28 15 4 3.1900000000000001e-01 3.6436488954623414e+00 4.5703469889844026e+00 6.4747951316508443e+00 0 0 0
29 15 3 -1.3800000000000001e-01 3.9265527990985345e+00 5.0254581851106481e+00 5.2397663492383426e+00 0 0 0
26 15 3 -1.3800000000000001e-01 4.0739769783311282e+00 5.5544653585873789e+00 7.3214399842350932e+00 0 0 0
27 15 3 -1.3800000000000001e-01 2.3246468628142694e+00 4.4277753644041571e+00 6.7339096153206102e+00 0 0 0
46 17 3 -1.3800000000000001e-01 2.7390936899809630e+00 2.0566472665046631e+00 3.9181464411190694e+00 0 0 -1
114 21 5 9.1100000000000003e-01 5.2773342712123272e-01 8.1535938541090314e+00 1.8035019767975176e+00 0 -1 0
47 17 4 3.1900000000000001e-01 1.4703517412714993e+00 1.7883946615028654e+00 3.7387472245505005e+00 0 0 -1
24 15 5 9.1100000000000003e-01 4.5661543889213174e+00 3.0361651414143531e+00 6.9958476600240171e+00 0 0 0
116 21 3 -1.3800000000000001e-01 1.7479788657998405e+00 7.0650294656079886e+00 3.8505946768336461e+00 0 -1 0
21 15 6 -5.8799999999999997e-01 4.0403282748727181e+00 1.5410454243533054e+00 6.2467045043014213e+00 0 0 0
270 44 7 -8.1999999999999995e-01 5.0397258924848787e+00 7.5316777966039661e+00 1.3002003116777139e+00 1 0 1
113 21 3 -1.3800000000000001e-01 1.9563446734392322e+00 4.3935578448984307e+00 1.5261729490934093e+00 0 -1 0
50 17 3 -1.3800000000000001e-01 6.5685431724189347e-01 2.7176469043485532e+00 4.2183344571463364e+00 0 0 -1
118 21 4 3.1900000000000001e-01 5.2886365707490335e-01 7.2878344242626287e+00 3.4094540685024048e+00 0 -1 0
111 21 6 -5.8799999999999997e-01 1.8737551572118689e+00 7.4730063459247322e+00 8.4124636520934082e-01 0 -1 0
53 17 3 -1.3800000000000001e-01 1.2767718183071060e+00 1.7793725784320311e+00 2.3997998135389071e+00 0 0 -1
19 15 2 -4.6100000000000002e-01 5.4444717758174823e+00 5.0600715130561580e-01 4.5514831903969126e+00 0 0 0
18 15 5 9.1100000000000003e-01 5.0602145816213504e+00 1.6177279031646619e-01 5.9562410782119501e+00 0 0 0
272 44 8 4.0999999999999998e-01 4.1502710272665748e+00 7.9658802763946266e+00 1.5558782432674987e+00 1 0 1
140 23 3 -1.3800000000000001e-01 1.0112115017866992e+00 7.5322539463365965e+00 7.8678789672373206e+00 0 -1 0
260 40 8 4.0999999999999998e-01 2.3547011345912554e+00 1.1984601528086347e+00 7.5854523048118425e+00 -1 -2 0
48 17 5 9.1100000000000003e-01 1.0985877588037942e+00 2.4763476643836002e-01 4.4392044600081100e+00 0 0 -1
235 32 8 4.0999999999999998e-01 5.5185979466544719e+00 1.3619455858392471e+00 3.1337865178380571e+00 -1 0 1
295 52 8 4.0999999999999998e-01 5.3193920384242501e+00 4.5416719453059828e+00 2.8479480054058084e+00 0 -2 0
107 21 4 3.1900000000000001e-01 2.2384772709972274e+00 4.5908088630984523e+00 2.0504186990094933e-01 0 -1 0
119 21 3 -1.3800000000000001e-01 8.3680354970745441e-03 8.0577595527473989e+00 4.3878575039310572e+00 0 -1 0
106 21 3 -1.3800000000000001e-01 3.5806465063492627e+00 4.5514667833697686e+00 1.0470913130151166e-01 0 -1 0
45 17 2 -4.6100000000000002e-01 1.0369406966718420e+00 2.1738634547944249e-01 5.8830610204771325e+00 0 0 -1
100 20 2 -4.6100000000000002e-01 7.3747148520447814e+00 7.9389406671929947e+00 7.5803092425938390e+00 0 0 -1
334 65 8 4.0999999999999998e-01 8.5070528834364048e+00 5.5127865143269474e+00 7.4535577758695917e+00 0 -1 0
234 32 7 -8.1999999999999995e-01 5.9496026242744513e+00 1.8638395723779693e+00 2.3796951095866499e+00 -1 0 1
174 25 5 9.1100000000000003e-01 1.0820185458689586e+01 2.3896869671013521e+00 7.8526668051367450e+00 -1 0 0
294 52 7 -8.1999999999999995e-01 6.1865902528453418e+00 4.6718440177361371e+00 2.3321766552332783e+00 0 -2 0
296 52 8 4.0999999999999998e-01 6.3367142015725682e+00 3.7716269088463150e+00 1.8569058100341251e+00 0 -2 0
284 48 8 4.0999999999999998e-01 6.4083755922218408e+00 5.7194903012504819e+00 5.2479195117783748e+00 -1 0 -1
25 15 2 -4.6100000000000002e-01 5.8470299782843282e+00 3.1763117194424573e+00 6.3572574296873956e+00 0 0 0
283 48 8 4.0999999999999998e-01 7.6479107804588375e+00 6.6916642274354468e+00 5.8774137294652959e+00 -1 0 -1
310 57 8 4.0999999999999998e-01 9.0136237370884196e+00 4.3013564580091233e+00 1.2116082871347702e+00 2 -3 -2
282 48 7 -8.1999999999999995e-01 7.3144002680305347e+00 6.2343643753798199e+00 5.0408159662589798e+00 -1 0 -1
311 57 8 4.0999999999999998e-01 1.0446845197760604e+01 3.8336763530182378e+00 1.8535581406283341e+00 2 -3 -2
309 57 7 -8.1999999999999995e-01 9.4626811448948960e+00 3.8635152200232579e+00 2.0307922248430930e+00 2 -3 -2
316 59 8 4.0999999999999998e-01 7.2143836114695867e+00 2.9403501110930566e+00 5.0030571783197049e+00 -1 -1 -1
315 59 7 -8.1999999999999995e-01 8.0817590531278167e+00 3.4513218502501446e+00 4.7203092138001264e+00 -1 -1 -1
317 59 8 4.0999999999999998e-01 8.5468160206130559e+00 3.7355985283077846e+00 5.5101222652059221e+00 -1 -1 -1
10 10 1 8.0000000000000004e-01 8.9270928572517629e+00 2.1387150737555340e+00 3.1939191423961466e+00 -1 -1 -1
64 18 2 -4.6100000000000002e-01 8.7471883715961436e+00 1.1709447932665908e+00 1.2542736614131023e+00 -1 0 0
172 25 2 -4.6100000000000002e-01 1.0570394119338868e+01 3.4795808949068050e+00 6.8000049083734444e+00 -1 0 0
252 38 7 -8.1999999999999995e-01 1.0852052420943817e+01 5.4314253658510969e+00 4.5996184723079319e+00 -1 -1 0
4 4 1 8.0000000000000004e-01 8.5713352250017909e+00 5.2697914790958835e+00 3.6635527364168432e+00 0 0 0
236 32 8 4.0999999999999998e-01 5.9545492058473224e+00 1.3095595656931880e+00 1.5448227389925333e+00 -1 0 1
16 15 3 -1.3800000000000001e-01 7.4644291888011001e+00 8.7985792468526947e-01 6.5746156051934408e+00 0 0 0
305 55 8 4.0999999999999998e-01 7.5914628625904790e+00 7.5146233207069937e+00 3.4103158230723745e+00 0 0 1
14 14 1 8.0000000000000004e-01 1.0951091381092128e+01 6.8897513762163269e+00 8.2738608142829051e+00 -1 0 -1
175 25 2 -4.6100000000000002e-01 1.0987906132337194e+01 1.1072244016828099e+00 7.2286001764944849e+00 -1 0 0
9 9 1 8.0000000000000004e-01 6.7371913035025575e+00 6.2111828193391210e+00 8.1745320952468292e-01 0 -1 0
303 55 7 -8.1999999999999995e-01 7.9052984279214931e+00 7.3410220395120493e+00 2.4388039917020210e+00 0 0 1
333 65 7 -8.1999999999999995e-01 9.4714480319512635e+00 5.9342942512129753e+00 7.2482847167423170e+00 0 -1 0
67 18 2 -4.6100000000000002e-01 8.5017198281176238e+00 1.9696042908470165e-01 3.5930998360526525e+00 -1 0 0
335 65 8 4.0999999999999998e-01 9.8897219734086068e+00 5.5000289285432906e+00 6.4116153531438762e+00 0 -1 0
240 34 7 -8.1999999999999995e-01 1.0922109874622372e+01 2.3273341820693751e+00 4.0564940599383599e+00 0 0 -1
17 15 4 3.1900000000000001e-01 6.5123150329735804e+00 6.1493260524519984e-02 7.0818593542784445e+00 0 0 0
304 55 8 4.0999999999999998e-01 8.8325508359003972e+00 7.7872316355745825e+00 2.1860794160876087e+00 0 0 1
217 28 2 -4.6100000000000002e-01 1.0806144187382280e+01 7.9248730093767676e+00 1.6466683227332479e+00 -1 0 0
242 34 8 4.0999999999999998e-01 1.1006488040662525e+01 3.1627191826804917e+00 4.6496576948938850e+00 0 0 -1
321 61 7 -8.1999999999999995e-01 1.1039756808181581e+01 8.0260382815720757e+00 5.6126901271520868e+00 -1 -1 2
264 42 7 -8.1999999999999995e-01 7.2874793461500449e+00 4.8140383032887115e+00 8.0335533773600449e+00 -1 0 -2
253 38 8 4.0999999999999998e-01 1.1068219694773239e+01 6.4108252793283231e+00 4.9484612463133502e+00 -1 -1 0
167 25 4 3.1900000000000001e-01 1.4150866712295244e+01 4.4571218137424991e+00 7.0581702282541388e+00 -1 0 0
254 38 8 4.0999999999999998e-01 1.1434133337981333e+01 5.0073420250828322e+00 3.9528137508461816e+00 -1 -1 0
171 25 6 -5.8799999999999997e-01 1.2531166311422753e+01 2.5735159983741585e+00 8.2384130373368265e+00 -1 0 0
220 28 2 -4.6100000000000002e-01 1.2942435890676343e+01 7.8547217685850095e+00 2.7849828010832689e-01 -1 0 0
274 45 8 4.0999999999999998e-01 1.3464267310654154e+01 1.3400330755380125e+00 4.5363286983136568e+00 -3 1 -1
194 26 3 -1.3800000000000001e-01 1.4917361309621240e+01 2.3981198576995060e+00 2.1189620377461158e+00 -1 0 0
1 1 1 8.0000000000000004e-01 1.2933363831587132e+01 1.6353875721252800e-01 7.3486550284203824e+00 -2 0 0
192 26 3 -1.3800000000000001e-01 1.3178205015736635e+01 1.7521701219043795e+00 9.8574904234389826e-01 -1 0 0
189 26 5 9.1100000000000003e-01 1.3272446815687109e+01 4.2820781768617016e+00 1.4952509163862695e+00 -1 0 0
193 26 4 3.1900000000000001e-01 1.4073963268994046e+01 2.7764275650219021e+00 1.1241739109351145e+00 -1 0 0
173 25 3 -1.3800000000000001e-01 1.3472965111894716e+01 4.2483689540510241e+00 5.9608121595864230e+00 -1 0 0
273 45 7 -8.1999999999999995e-01 1.2868500011898348e+01 7.3372034655762797e-01 5.0834765837229696e+00 -3 1 -1
187 26 2 -4.6100000000000002e-01 1.4310874706556538e+01 5.2465017681519130e+00 1.1459165872908825e+00 -1 0 0
166 25 3 -1.3800000000000001e-01 1.5266269915943191e+01 3.7644415551148036e+00 7.0348664432883163e+00 -1 0 0
170 25 3 -1.3800000000000001e-01 1.4539592068194519e+01 5.7480326240800066e+00 6.9897012007098240e+00 -1 0 0
241 34 8 4.0999999999999998e-01 1.1584361899089600e+01 1.6273258386889202e+00 4.4108452575165060e+00 0 0 -1
117 21 3 -1.3800000000000001e-01 1.6582444112720786e+01 6.1072046510434461e+00 3.3242984989966011e+00 -1 -1 0
186 26 6 -5.8799999999999997e-01 1.1817097448333081e+01 4.4822772552748820e+00 4.3894746140615343e-01 -1 0 0
190 26 2 -4.6100000000000002e-01 1.2585179613055729e+01 4.4473592898793335e+00 2.8311608879339998e+00 -1 0 0
115 21 2 -4.6100000000000002e-01 1.5807562310181527e+01 8.0040774837112050e+00 1.1567760628537724e+00 -1 -1 0
157 24 2 -4.6100000000000002e-01 1.6178497990212617e+00 3.5362309482078302e+00 1.0569514792115337e+01 0 0 -1
159 24 5 9.1100000000000003e-01 2.2052912023017175e+00 4.3797684766819200e+00 1.1609078849544890e+01 0 0 -1
163 24 4 3.1900000000000001e-01 2.2453237584567765e+00 6.1658921785150280e+00 1.1250836265968069e+01 0 0 -1
160 24 2 -4.6100000000000002e-01 1.7757106019756617e+00 4.0818309885523449e+00 1.2997975798928813e+01 0 0 -1
156 24 6 -5.8799999999999997e-01 3.6730878203900881e+00 3.4554203619599186e+00 1.1562753324826938e+01 0 0 -1
7 7 1 8.0000000000000004e-01 2.9059989413525797e+00 2.0933655005651732e+00 1.0035363590306860e+01 0 -1 0
164 24 3 -1.3800000000000001e-01 3.0890351053653680e+00 6.5427643875634498e+00 1.0310636689084603e+01 0 0 -1
162 24 3 -1.3800000000000001e-01 1.0259942484637521e+00 6.6540234120444737e+00 1.1027879451643171e+01 0 0 -1
161 24 3 -1.3800000000000001e-01 2.6681726027151145e+00 6.8918237869514103e+00 1.2274556077768956e+01 0 0 -1
109 21 2 -4.6100000000000002e-01 2.2459641441340095e+00 6.7800127905620275e+00 1.5133216789479192e+01 0 -1 -1
108 21 5 9.1100000000000003e-01 1.5370757722418780e+00 6.1927717362486918e+00 1.6246685977804365e+01 0 -1 -1
259 40 8 4.0999999999999998e-01 1.5263477141997719e+00 2.9176053091178600e-01 8.6128530979902198e+00 -1 -2 0
154 24 2 -4.6100000000000002e-01 5.0114532867752004e+00 5.4032256425436280e+00 1.2705113462152331e+01 0 0 -1
258 40 7 -8.1999999999999995e-01 1.9374911432393229e+00 1.2325204212350940e+00 8.5341603355368338e+00 -1 -2 0
153 24 5 9.1100000000000003e-01 5.2113560449531526e+00 4.1468746709784607e+00 1.2046407527945641e+01 0 0 -1
127 22 2 -4.6100000000000002e-01 3.8901494320596317e+00 3.7038196795870559e-01 1.0991083183995780e+01 -1 0 -1
105 21 2 -4.6100000000000002e-01 9.9020415165678707e-02 5.9200301938146582e+00 1.6173900868049749e+01 0 -1 -1
326 62 8 4.0999999999999998e-01 3.2440063666120209e+00 7.1240284185358238e-01 1.6126808717550826e+01 1 -1 0
121 22 3 -1.3800000000000001e-01 4.4498844038000851e-01 7.6444688657510718e-01 1.1877007541096198e+01 -1 0 -1
101 20 3 -1.3800000000000001e-01 5.2644522323322560e+00 8.2329910509629745e+00 9.9052186000799107e+00 0 0 -1
245 35 8 4.0999999999999998e-01 3.5008657830699264e+00 7.8297012612703725e+00 1.4874980833981837e+01 1 -1 -2
155 24 3 -1.3800000000000001e-01 5.1582027510898270e+00 3.0852803622629650e+00 1.4482150380674344e+01 0 0 -1
125 22 3 -1.3800000000000001e-01 1.5584725847296139e+00 8.9926719131950639e-01 1.3813953551746382e+01 -1 0 -1
331 64 8 4.0999999999999998e-01 7.8320008555468459e-02 1.9809799300809183e+00 8.6619477535929406e+00 0 -1 -1
110 21 3 -1.3800000000000001e-01 1.6715863852302386e+00 3.5891675114349462e+00 1.6127007493222798e+01 0 -1 -1
122 22 4 3.1900000000000001e-01 7.1766261960413991e-01 1.1019800898335981e-01 1.3121102597377002e+01 -1 0 -1
22 15 2 -4.6100000000000002e-01 4.4000543725335550e+00 2.8342446782706929e+00 8.4603502050472343e+00 0 0 0
287 49 8 4.0999999999999998e-01 5.7400268501561067e+00 7.0417493751722793e+00 1.5379630918152692e+01 0 0 -1
196 27 3 -1.3800000000000001e-01 7.5824232281391506e+00 7.8893281888611781e+00 1.2509220031101593e+01 0 -1 -1
286 49 8 4.0999999999999998e-01 5.7636533789776738e+00 5.6705643636259522e+00 1.4588438221204711e+01 0 0 -1
265 42 8 4.0999999999999998e-01 6.6759446349070837e+00 5.5562788843187283e+00 8.3659216013965203e+00 -1 0 -2
266 42 8 4.0999999999999998e-01 7.0645954016186518e+00 4.0242555982454107e+00 8.6209342343301749e+00 -1 0 -2
285 49 7 -8.1999999999999995e-01 6.1401987869264376e+00 6.0970195447762459e+00 1.5411044835755286e+01 0 0 -1
150 24 2 -4.6100000000000002e-01 5.9608179470561886e+00 4.2293054557492020e+00 1.0802237798233797e+01 0 0 -1
200 27 3 -1.3800000000000001e-01 8.4201267850269730e+00 5.8568368191530729e+00 1.2585070772423403e+01 0 -1 -1
151 24 3 -1.3800000000000001e-01 5.9933238021263309e+00 1.8154355469694479e+00 1.2877350614939949e+01 0 0 -1
158 24 3 -1.3800000000000001e-01 7.1937986537823519e+00 3.4652581381098884e+00 1.3563045775347746e+01 0 0 -1
152 24 4 3.1900000000000001e-01 5.9098787705809182e+00 3.0723772017865514e+00 1.3334037607098326e+01 0 0 -1
197 27 4 3.1900000000000001e-01 8.2701226217201054e+00 6.9301244749224393e+00 1.1802763135671857e+01 0 -1 -1
178 25 4 3.1900000000000001e-01 9.9504947403479083e+00 2.5295696555919220e+00 9.4300778282461337e+00 -1 0 0
188 26 3 -1.3800000000000001e-01 1.0060805154144655e+01 3.8318890377523727e+00 1.4281561999880237e+01 -1 0 -1
176 25 3 -1.3800000000000001e-01 8.6637711651623466e+00 2.0774863754041086e+00 9.2441828720330381e+00 -1 0 0
203 27 3 -1.3800000000000001e-01 7.4709270709882132e+00 6.6909213209692640e+00 1.0687819067212533e+01 0 -1 -1
195 27 2 -4.6100000000000002e-01 1.0525319216370637e+01 6.9134412841268142e+00 1.0198279334150602e+01 0 -1 -1
177 25 3 -1.3800000000000001e-01 9.9565604694432572e+00 3.8303438166559061e+00 9.8006367322881722e+00 -1 0 0
198 27 5 9.1100000000000003e-01 9.8598278183688848e+00 7.6140115128620067e+00 1.1313269370661459e+01 0 -1 -1
179 25 3 -1.3800000000000001e-01 1.0541072474554234e+01 1.8408955174603783e+00 1.0388199470512047e+01 -1 0 0
238 33 8 4.0999999999999998e-01 8.3161518054246546e+00 4.8670524463210745e+00 1.5551836741579951e+01 -1 -3 -1
199 27 2 -4.6100000000000002e-01 1.0548385691026361e+01 7.7177562746404211e+00 1.2626313925165238e+01 0 -1 -1
180 26 2 -4.6100000000000002e-01 1.0937867128009492e+01 6.2980170693347244e+00 1.5425719477134221e+01 -1 0 -1
61 18 3 -1.3800000000000001e-01 9.3968296743026087e+00 7.2489549078398308e-01 1.4817050366711612e+01 -1 0 -1
239 33 8 4.0999999999999998e-01 9.3928031382371291e+00 5.9921730601113889e+00 1.6424584282400552e+01 -1 -3 -1
237 33 7 -8.1999999999999995e-01 8.5898587130192592e+00 5.3652508676086592e+00 1.6420705671534471e+01 -1 -3 -1
23 15 3 -1.3800000000000001e-01 6.2104702780511172e+00 4.9076870919638793e-01 8.3033893983594922e+00 0 0 0
168 25 5 9.1100000000000003e-01 1.3181883833986294e+01 4.2042621431201948e+00 8.5663024465556710e+00 -1 0 0
332 64 8 4.0999999999999998e-01 1.5341183614669855e+01 1.0229834103914353e+00 8.4006604715071980e+00 -1 -1 -1
308 56 8 4.0999999999999998e-01 1.6177025520978255e+01 3.6018372441958526e+00 1.3060701105225441e+01 -1 1 0
182 26 4 3.1900000000000001e-01 1.1398026776668617e+01 3.9545961876373359e+00 1.4268741831028665e+01 -1 0 -1
191 26 3 -1.3800000000000001e-01 1.4802063651158321e+01 2.7153904114605885e+00 1.6557173429921395e+01 -1 0 -1
165 25 2 -4.6100000000000002e-01 1.2127214179681470e+01 5.2397583087713953e+00 8.5544115404420573e+00 -1 0 0
169 25 2 -4.6100000000000002e-01 1.4003562048061845e+01 3.9224354050372354e+00 9.7180270328623326e+00 -1 0 0
77 19 4 3.1900000000000001e-01 1.4277327460795860e+01 7.0101731477807379e+00 1.1898253197036883e+01 -1 0 -1
184 26 2 -4.6100000000000002e-01 1.3399061988745158e+01 5.5331997245420457e+00 1.5182643653965936e+01 -1 0 -1
330 64 7 -8.1999999999999995e-01 1.5774062619871762e+01 1.7118909849328310e+00 9.0743360873960288e+00 -1 -1 -1
307 56 8 4.0999999999999998e-01 1.4463720621920150e+01 3.5834102248189228e+00 1.2938465649697219e+01 -1 1 0
185 26 3 -1.3800000000000001e-01 1.1928592103750857e+01 4.1122847444496013e+00 1.3079914707473717e+01 -1 0 -1
83 19 3 -1.3800000000000001e-01 1.4666642529495897e+01 6.9166340317410970e+00 1.0606576454426728e+01 -1 0 -1
2 2 1 8.0000000000000004e-01 1.5025764187626997e+01 2.3708207735717668e+00 1.0886366878946879e+01 -1 -1 0
181 26 3 -1.3800000000000001e-01 1.1844970626221281e+01 2.7679225248072474e+00 1.4657728321437945e+01 -1 0 -1
76 19 3 -1.3800000000000001e-01 1.3177125165470008e+01 6.2654521705264319e+00 1.2077983924158136e+01 -1 0 -1
6 6 1 8.0000000000000004e-01 1.4698482781661658e+01 6.7969031432701561e+00 1.6281119565944117e+01 -2 0 0
183 26 5 9.1100000000000003e-01 1.1989185595548586e+01 5.2418346877823501e+00 1.5429957284778364e+01 -1 0 -1
80 19 3 -1.3800000000000001e-01 1.5275763710501669e+01 6.4258154268477838e+00 1.2606018300333245e+01 -1 0 -1
306 56 7 -8.1999999999999995e-01 1.5409014732239589e+01 3.2009266800823459e+00 1.2662487737540394e+01 -1 1 0
34 16 2 -4.6100000000000002e-01 1.3970898260221873e+01 6.0829920314396335e-01 1.1524326921560830e+01 -1 0 0
128 22 3 -1.3800000000000001e-01 1.6113100606041559e+01 1.1645716006026427e-01 1.3732455605553124e+01 -2 0 -1
249 37 7 -8.1999999999999995e-01 1.8990515836086967e+00 1.3519645035688972e+01 6.5697779655281803e+00 0 -2 0
251 37 8 4.0999999999999998e-01 1.7127116159162314e+00 1.4342610261024504e+01 6.0102921935154345e+00 0 -2 0
231 31 7 -8.1999999999999995e-01 3.8150974523866692e+00 9.5245031775414208e+00 4.3820979873747268e+00 1 -1 -1
225 29 7 -8.1999999999999995e-01 1.7767391983908747e+00 1.1807558631763646e+01 3.7636427785713429e+00 1 0 0
261 41 7 -8.1999999999999995e-01 4.4999660123119956e+00 1.2737116540289083e+01 5.7223460702443765e+00 0 -1 0
49 17 2 -4.6100000000000002e-01 1.8820338817485545e+00 1.5732619888552971e+01 3.8616209717694985e+00 0 -1 -1
12 12 1 8.0000000000000004e-01 3.8105771944679048e+00 1.1548567272939742e+01 4.0762352878573118e+00 0 -1 -1
250 37 8 4.0999999999999998e-01 2.8876814035342782e+00 1.3341035543936895e+01 6.4480112499730415e+00 0 -2 0
227 29 8 4.0999999999999998e-01 1.3374492967396561e+00 1.2702822013643843e+01 4.0759796747881083e+00 1 0 0
226 29 8 4.0999999999999998e-01 9.3682905512407044e-01 1.1233598212962271e+01 3.7085848352171489e+00 1 0 0
228 30 7 -8.1999999999999995e-01 4.4774131329494020e+00 1.4856997132325461e+01 2.5199178241835720e+00 0 -2 0
13 13 1 8.0000000000000004e-01 4.0452745082245354e+00 1.4542044628176273e+01 4.3471255616312976e-01 0 -1 0
15 15 2 -4.6100000000000002e-01 4.2973479422236469e+00 1.5558533751395970e+01 6.2902001368121656e+00 0 -1 0
229 30 8 4.0999999999999998e-01 3.6717369506064212e+00 1.5010523363751265e+01 3.1608988711124120e+00 0 -2 0
232 31 8 4.0999999999999998e-01 3.4419128963168175e+00 9.2676602795304781e+00 5.2841654681532022e+00 1 -1 -1
233 31 8 4.0999999999999998e-01 4.6395382852504410e+00 8.9942865641204506e+00 4.1373798278650362e+00 1 -1 -1
262 41 8 4.0999999999999998e-01 5.3754515005895893e+00 1.2241602491275573e+01 6.0109251887841539e+00 0 -1 0
263 41 8 4.0999999999999998e-01 4.7396828504801887e+00 1.3673599060970254e+01 6.0024735316308702e+00 0 -1 0
137 23 4 3.1900000000000001e-01 1.0197629072330674e+00 8.8222911843002247e+00 7.7570892744427491e+00 0 -1 0
112 21 2 -4.6100000000000002e-01 1.0767761631789485e+00 9.5692280304679702e+00 1.7556736890946274e+00 0 -1 0
230 30 8 4.0999999999999998e-01 5.3800359379480627e+00 1.4913590795676411e+01 3.0147981061134099e+00 0 -2 0
136 23 3 -1.3800000000000001e-01 9.5746178420249528e-01 9.2052206799734879e+00 6.4726382339051289e+00 0 -1 0
269 43 8 4.0999999999999998e-01 2.2149028118730554e+00 1.0288451684622901e+01 8.2382485957868179e-01 -1 -2 0
59 17 3 -1.3800000000000001e-01 1.2507769171219318e-01 1.5519421417827052e+01 1.2804823516082584e+00 0 -1 -1
11 11 1 8.0000000000000004e-01 5.3985856096009888e-01 1.3185012249847970e+01 8.1044662603889837e+00 0 0 -2
97 20 2 -4.6100000000000002e-01 5.0161036155067604e+00 8.4022928282284557e+00 6.6211571850819615e+00 0 0 -1
267 43 7 -8.1999999999999995e-01 2.8380265644500002e+00 1.0279059110901605e+01 3.4645532561594194e-02 -1 -2 0
99 20 5 9.1100000000000003e-01 6.1659679711636990e+00 8.7725716627406296e+00 7.4618009199329931e+00 0 0 -1
302 54 8 4.0999999999999998e-01 6.1624209740203488e+00 1.0721705379118177e+01 2.0031600842177273e+00 0 0 0
339 67 7 -8.1999999999999995e-01 5.9138041882303600e+00 1.3604561407329793e+01 3.2829575077317624e-01 0 -1 -1
218 28 3 -1.3800000000000001e-01 8.7581212011996197e+00 1.2564934102367951e+01 1.0915199534016874e-01 -1 0 0
328 63 8 4.0999999999999998e-01 5.6683913642235062e+00 1.2877315928693665e+01 2.4856647803834053e+00 0 -3 0
327 63 7 -8.1999999999999995e-01 5.7709925064749390e+00 1.1961873265043318e+01 3.0344779113138474e+00 0 -3 0
98 20 3 -1.3800000000000001e-01 1.0465689937781722e+01 1.1256810762991513e+01 6.3510638614506032e+00 0 0 -1
95 20 3 -1.3800000000000001e-01 8.8146790407855971e+00 1.2008269751059208e+01 7.5960588882215889e+00 0 0 -1
329 63 8 4.0999999999999998e-01 6.6518726898112472e+00 1.1958220834854663e+01 3.5911662034130001e+00 0 -3 0
94 20 2 -4.6100000000000002e-01 7.7227794512193260e+00 1.1370171828156963e+01 4.6635797602051650e+00 0 0 -1
69 18 5 9.1100000000000003e-01 8.4061512036799755e+00 1.5339741101976601e+01 3.3495000485552051e+00 -1 -1 0
92 20 4 3.1900000000000001e-01 9.2776524249776742e+00 1.0911836202483652e+01 6.9537638870166285e+00 0 0 -1
93 20 5 9.1100000000000003e-01 8.0753210084177525e+00 1.0384843053123497e+01 5.7156411299747587e+00 0 0 -1
70 18 2 -4.6100000000000002e-01 7.1678658870152105e+00 1.4611029157218431e+01 3.8551291991325165e+00 -1 -1 0
96 20 6 -5.8799999999999997e-01 6.5892781911336940e+00 1.0257787478350544e+01 6.6738821721619637e+00 0 0 -1
73 18 4 3.1900000000000001e-01 9.9186459109877916e+00 1.4668909926599063e+01 4.0421562900104169e+00 -1 -1 0
214 28 2 -4.6100000000000002e-01 9.1030760268476918e+00 1.0000343127872675e+01 1.2483318377574635e+00 -1 0 0
71 18 3 -1.3800000000000001e-01 1.0111880647138626e+01 1.5125000049589476e+01 5.3469844200751462e+00 -1 -1 0
66 18 6 -5.8799999999999997e-01 8.3730823823436911e+00 1.5126847991794358e+01 1.6475294676556840e+00 -1 -1 0
74 18 3 -1.3800000000000001e-01 9.7477003928905912e+00 1.3360163196217876e+01 4.1994743503569358e+00 -1 -1 0
90 20 2 -4.6100000000000002e-01 8.4666492375275375e+00 9.0551150339824318e+00 5.2530511484839515e+00 0 0 -1
20 15 3 -1.3800000000000001e-01 6.9574932475883786e+00 1.5393661202469771e+01 7.1693193971646343e+00 0 -1 0
91 20 3 -1.3800000000000001e-01 9.5392290478939170e+00 9.9616109043958136e+00 7.8315138651153120e+00 0 0 -1
341 67 8 4.0999999999999998e-01 6.8480814020088561e+00 1.3935264593398884e+01 4.7695305771437335e-01 0 -1 -1
72 18 3 -1.3800000000000001e-01 1.1001524898612466e+01 1.4898863861946010e+01 3.3285212378005014e+00 -1 -1 0
301 54 8 4.0999999999999998e-01 7.4379025100735356e+00 9.9264371929985646e+00 1.4295979073452889e+00 0 0 0
300 54 7 -8.1999999999999995e-01 6.4173885939981403e+00 9.9249900377124298e+00 1.4097645639597955e+00 0 0 0
215 28 3 -1.3800000000000001e-01 1.0866659828348764e+01 1.2355428472467390e+01 6.7536904635807038e-01 -1 0 0
63 18 5 9.1100000000000003e-01 8.3725971539730040e+00 1.6500236632145594e+01 5.2178988381959601e-01 -1 -1 0
271 44 8 4.0999999999999998e-01 5.7724516843645155e+00 8.3164053008568573e+00 1.4368419973486937e+00 1 0 1
60 18 2 -4.6100000000000002e-01 6.9587596586739320e+00 1.6482906149863105e+01 1.9077677646643471e-01 -1 -1 0
323 61 8 4.0999999999999998e-01 1.0334933226135238e+01 8.6567139381119080e+00 5.1645697484048032e+00 -1 -1 2
139 23 2 -4.6100000000000002e-01 1.4855298694056120e+01 8.9280876366964179e+00 8.2851343261604473e+00 -1 -1 0
318 60 7 -8.1999999999999995e-01 1.5129343123625642e+01 1.6392608257758539e+01 7.1925676981163624e+00 -2 -1 0
87 19 3 -1.3800000000000001e-01 1.5633080588906280e+01 1.0797380746008754e+01 2.0079185062608848e-01 -1 0 0
219 28 5 9.1100000000000003e-01 1.1932572907905861e+01 8.6048915846400185e+00 1.0465807142920414e+00 -1 0 0
149 23 3 -1.3800000000000001e-01 1.3093516937528252e+01 1.2039406249041365e+01 5.1474611876510643e+00 -1 -1 0
141 23 6 -5.8799999999999997e-01 1.5937975367870882e+01 1.1216299600172333e+01 7.8522184756278417e+00 -1 -1 0
148 23 4 3.1900000000000001e-01 1.4124347280784045e+01 1.1305532572048401e+01 5.5891186658411964e+00 -1 -1 0
51 17 6 -5.8799999999999997e-01 1.5975447828790029e+01 1.6489717847727153e+01 4.2276153466632893e+00 -1 -1 -1
221 28 3 -1.3800000000000001e-01 1.1774735676431504e+01 1.0252969448699240e+01 3.0330502118816089e+00 -1 0 0
319 60 8 4.0999999999999998e-01 1.5094125440320134e+01 1.5429240626578052e+01 7.4446278347461634e+00 -2 -1 0
52 17 2 -4.6100000000000002e-01 1.6475986842152789e+01 1.3938757929097422e+01 4.0752537948462741e+00 -1 -1 -1
144 23 5 9.1100000000000003e-01 1.4481714869619038e+01 1.1924646715514948e+01 7.3042224971003602e+00 -1 -1 0
147 23 3 -1.3800000000000001e-01 1.5162166694769518e+01 1.1521310789015327e+01 4.8238682862019333e+00 -1 -1 0
56 17 3 -1.3800000000000001e-01 1.4527598731681508e+01 1.6080527831262042e+01 1.5640108010604641e+00 -1 -1 -1
37 16 2 -4.6100000000000002e-01 1.1900242750986520e+01 1.4955266268376304e+01 7.6833342662689361e+00 -1 -1 0
222 28 3 -1.3800000000000001e-01 1.3391864317119051e+01 1.0674494727370732e+01 1.7111154012122600e+00 -1 0 0
54 17 5 9.1100000000000003e-01 1.5525847580032977e+01 1.4909633194118616e+01 3.5881307885068443e+00 -1 -1 -1
224 28 3 -1.3800000000000001e-01 1.3613458379853551e+01 8.9824456685776237e+00 2.9799474106154542e+00 -1 0 0
145 23 2 -4.6100000000000002e-01 1.5035482229813757e+01 1.3307352032757723e+01 7.3971016079344096e+00 -1 -1 0
57 17 3 -1.3800000000000001e-01 1.5160062233567485e+01 1.4024238260074924e+01 1.1390911599404134e+00 -1 -1 -1
146 23 3 -1.3800000000000001e-01 1.3835854054561455e+01 1.0000946168512368e+01 5.5592140241021495e+00 -1 -1 0
58 17 4 3.1900000000000001e-01 1.5506331847435268e+01 1.5137078382855515e+01 1.8401157257486744e+00 -1 -1 -1
223 28 4 3.1900000000000001e-01 1.2688781589369842e+01 9.7020471928554954e+00 2.2584756710046396e+00 -1 0 0
55 17 2 -4.6100000000000002e-01 1.4179572522665715e+01 1.5032755951403717e+01 4.1272056424702912e+00 -1 -1 -1
275 45 8 4.0999999999999998e-01 1.3040287385278670e+01 1.6360594161883153e+01 4.7407077795955983e+00 -3 0 -1
322 61 8 4.0999999999999998e-01 1.1519349068296755e+01 8.4892262768800624e+00 6.4176766807169860e+00 -1 -1 2
142 23 2 -4.6100000000000002e-01 1.3558167026313026e+01 1.1296294462930005e+01 8.2539202965994232e+00 -1 -1 0
320 60 8 4.0999999999999998e-01 1.5434657504693925e+01 1.6358136052610426e+01 6.2235798060906937e+00 -2 -1 0
289 50 8 4.0999999999999998e-01 1.3036295057152635e+01 9.0781967357969489e+00 8.2107580645550708e+00 -1 2 0
126 22 6 -5.8799999999999997e-01 2.3111107722834023e+00 1.5079155009212025e+01 1.1484622094942093e+01 -1 -1 -1
123 22 5 9.1100000000000003e-01 1.2094466378246476e+00 1.4937526909274380e+01 1.2848350842873291e+01 -1 -1 -1
129 22 5 9.1100000000000003e-01 3.8974757786186967e+00 1.5670629794943602e+01 1.1648269432582195e+01 -1 -1 -1
124 22 2 -4.6100000000000002e-01 1.9976631157528724e+00 1.4350473609218378e+01 1.3908674630815792e+01 -1 -1 -1
291 51 7 -8.1999999999999995e-01 1.9914468801611764e+00 1.0238504242537578e+01 1.1747972885798479e+01 0 -2 -1
292 51 8 4.0999999999999998e-01 1.2296383680148417e+00 9.6698721714374276e+00 1.1302611687119494e+01 0 -2 -1
85 19 2 -4.6100000000000002e-01 9.2499508261095209e-01 9.8208743927022280e+00 1.4284989467915350e+01 0 0 -1
276 46 7 -8.1999999999999995e-01 4.6294891400059184e+00 9.5900538712063419e+00 1.2510312935849083e+01 0 -1 -1
312 58 7 -8.1999999999999995e-01 1.5625046942751488e+00 1.2344477545079320e+01 9.7100952447326740e+00 1 -1 -1
293 51 8 4.0999999999999998e-01 1.7011045435638343e+00 1.0382530764966855e+01 1.2702011169359684e+01 0 -2 -1
313 58 8 4.0999999999999998e-01 2.4878326796720134e+00 1.2741314387456326e+01 9.7085566784911705e+00 1 -1 -1
130 22 2 -4.6100000000000002e-01 4.1907364764003798e+00 1.5771260771979449e+01 1.3094780612949359e+01 -1 -1 -1
132 22 3 -1.3800000000000001e-01 4.4408608701572749e+00 1.4359303359219584e+01 9.4363496358385746e+00 -1 -1 -1
133 22 4 3.1900000000000001e-01 4.9255738990183273e+00 1.4504881297645003e+01 1.0693916473101190e+01 -1 -1 -1
134 22 3 -1.3800000000000001e-01 4.8142556890672905e+00 1.3265883066799026e+01 1.1233933758883140e+01 -1 -1 -1
257 39 8 4.0999999999999998e-01 1.2151533675743320e+00 1.5115799940018789e+01 9.8036274279002846e+00 0 0 -2