variable        infile index data.mol
variable        mytemp index 298

# set up simulation
#read_restart    ${NAME}.restart.*

# the following information is saved to restart files
units           real
atom_style      full
boundary        p p p
pair_style      lj/cut/coul/long 7
kspace_style    pppm 0.0001
pair_modify     tail yes
pair_modify     mix arithmetic
special_bonds   amber

bond_style      harmonic
angle_style     harmonic
dihedral_style  charmm
#improper_style  cvff

read_data       ${infile}
read_data       data.mol
  orthogonal box = (0 0 0) to (16.5843 16.5843 16.5843)
  1 by 2 by 2 MPI processor grid
  reading atoms ...
  341 atoms
  reading velocities ...
  341 velocities
  scanning bonds ...
  4 = max bonds/atom
  scanning angles ...
  6 = max angles/atom
  scanning dihedrals ...
  12 = max dihedrals/atom
  reading bonds ...
  274 bonds
  reading angles ...
  389 angles
  reading dihedrals ...
  420 dihedrals
  4 = max # of 1-2 neighbors
  6 = max # of 1-3 neighbors
  12 = max # of 1-4 neighbors
  14 = max # of special neighbors
  special bonds CPU = 0.000350201 secs
  read_data CPU = 0.0102275 secs

#replicate       3 4 4

neighbor        2.0 bin
neigh_modify    delay 0 every 1 check yes page 1000000 one 20000
timestep        1.0
#velocity        all create ${mytemp} 314159265 mom yes rot yes dist gaussian

## end information that is saved to restart files

## create velocity profile
#minimize       1e-4 1e-6 10000 10000
#velocity        all create  ${mytemp} 314159265 units box
velocity        all zero linear units box
dump            DUMP all custom 1000 ${NAME}.lammpstrj id type x y z mol
dump            DUMP all custom 1000 mol.lammpstrj id type x y z mol
thermo_style    custom step vol temp press ke pe etotal enthalpy evdwl ecoul epair ebond eangle edihed eimp emol elong etail lx ly lz xy xz yz pxy pxz pyz pxx pyy pzz
thermo          1000
#
## thermostat and integrator

#fix             NPT all npt temp ${mytemp} ${mytemp} 100.0 iso 1.0 1.0 100.0
fix             NVT all nvt temp ${mytemp} ${mytemp} 100.0
fix             NVT all nvt temp 298 ${mytemp} 100.0
fix             NVT all nvt temp 298 298 100.0

restart         50000 restart.${NAME}.1 restart.${NAME}.2
restart         50000 restart.mol.1 restart.${NAME}.2
restart         50000 restart.mol.1 restart.mol.2
run             10000000
PPPM initialization ...
  using 12-bit tables for long-range coulomb (src/kspace.cpp:332)
  G vector (1/distance) = 0.374366
  grid = 12 12 12
  stencil order = 5
  estimated absolute RMS force accuracy = 0.0274815
  estimated relative force accuracy = 8.27598e-05
  using double precision KISS FFT
  3d grid and FFT values/proc = 3211 432
Neighbor list info ...
  update every 1 steps, delay 0 steps, check yes
  max neighbors/atom: 20000, page size: 1000000
  master list distance cutoff = 9
  ghost atom cutoff = 9
  binsize = 4.5, bins = 4 4 4
  1 neighbor lists, perpetual/occasional/extra = 1 0 0
  (1) pair lj/cut/coul/long, perpetual
      attributes: half, newton on
      pair build: half/bin/newton
      stencil: half/bin/3d/newton
      bin: standard
Per MPI rank memory allocation (min/avg/max) = 17.94 | 17.94 | 17.94 Mbytes
Step Volume Temp Press KinEng PotEng TotEng Enthalpy E_vdwl E_coul E_pair E_bond E_angle E_dihed E_impro E_mol E_long E_tail Lx Ly Lz Xy Xz Yz Pxy Pxz Pyz Pxx Pyy Pzz 
       0    4561.3294    303.42837    -1166.778    307.51719   -783.25749   -475.74029   -553.35706   -81.880852    4875.7835   -1664.6997    97.735749     171.4452    612.26131            0    881.44225   -6458.6024   -48.271156      16.5843      16.5843      16.5843            0            0            0    173.01437   -1127.3301    -1125.392   -1890.1026   -1649.2273     38.99587 
    1000    4561.3294    315.25147    3120.9773    319.49961     -771.884   -452.38439   -244.76977   -74.569192    4878.3101   -1653.9218    104.03077     162.2631    615.74395            0    882.03782   -6457.6627   -48.271156      16.5843      16.5843      16.5843            0            0            0   -1527.6618   -1834.0634   -3575.0251    4581.9236   -2758.1776    7539.1858 
    2000    4561.3294    303.10536   -659.16982    307.18983   -760.41633    -453.2265     -497.076   -78.568867    4892.4304   -1640.3631    87.476694    167.67401    624.79606            0    879.94677   -6454.2246   -48.271156      16.5843      16.5843      16.5843            0            0            0   -2685.4191     2406.099   -792.97381      850.808    -3007.099    178.78157 
    3000    4561.3294     291.6261    914.23551    295.55588    -796.3137   -500.75782   -439.94076   -68.486776    4860.4804   -1663.4123    101.28833    148.14288    617.66739            0    867.09859   -6455.4059   -48.271156      16.5843      16.5843      16.5843            0            0            0    4383.8156    6273.7615     1670.678   -857.35209    226.52339    3373.5352 
    4000    4561.3294     322.7823   -1325.3304    327.13192   -799.91095   -472.77903   -560.94307    -89.54164    4867.1708   -1678.5448     91.96268    167.30694    619.36425            0    878.63388    -6456.174   -48.271156      16.5843      16.5843      16.5843            0            0            0   -1732.6673   -2782.5874   -455.72365   -1935.4266    1247.4019   -3287.9665 
    5000    4561.3294    276.69291   -1729.1676    280.42146   -776.86093   -496.43947    -611.4677   -78.546992    4870.4858    -1665.638    91.019511    181.55009    616.20747            0    888.77707   -6457.5769   -48.271156      16.5843      16.5843      16.5843            0            0            0    1818.7395   -906.77091    74.781837   -60.081468     116.5816    -5244.003 
    6000    4561.3294    295.09637    916.92656    299.07291   -777.75125   -478.67834   -417.68227   -96.746117    4903.1733   -1646.7806    97.990275     151.2933    619.74576            0    869.02933   -6453.2077   -48.271156      16.5843      16.5843      16.5843            0            0            0    -672.4913   -2222.3968    1713.3106   -238.04807    3516.8045   -527.97677 
    7000    4561.3294    286.50107   -6929.3907    290.36179   -809.13346   -518.77166   -979.73074   -120.54568    4895.8105   -1679.4586    92.419335    160.09366    617.81219            0    870.32518   -6454.7235   -48.271156      16.5843      16.5843      16.5843            0            0            0     805.1017   -4636.4617    837.28938   -9347.4229   -4071.6702   -7369.0788 
    8000    4561.3294    314.29958     1379.404     318.5349   -758.53604   -440.00114      -348.24    -106.5767    4908.6786   -1653.2805    102.44492    175.38008    616.91943            0    894.74443   -6455.3824   -48.271156      16.5843      16.5843      16.5843            0            0            0     1804.133   -1087.3045   -506.39846   -1771.1382    2932.7161    2976.6341 
    9000    4561.3294    296.82338    2487.0859     300.8232   -779.09379   -478.27059   -312.82389   -65.928582    4882.1374   -1639.9122    91.296535    151.27886    618.24305            0    860.81845   -6456.1211   -48.271156      16.5843      16.5843      16.5843            0            0            0    3241.9943    280.16725   -4663.7366    3867.3509   -182.05375    3775.9607 
   10000    4561.3294    293.64877     2659.061    297.60581   -781.58498   -483.97917   -307.09229   -57.690867    4849.0851    -1666.594    94.031862    169.77494    621.20221            0    885.00901   -6457.9883   -48.271156      16.5843      16.5843      16.5843            0            0            0   -5116.4128    3611.8556   -3590.6616    5932.2341   -1609.6781     3654.627 
   11000    4561.3294    299.27129   -155.57139     303.3041   -796.10855   -492.80445   -503.15342   -67.314139    4849.9068   -1670.6955    88.559314    164.33799    621.68963            0    874.58693   -6453.2882   -48.271156      16.5843      16.5843      16.5843            0            0            0    -4133.363    223.03787     51.88572    385.61594    4770.0694   -5622.3995 
   12000    4561.3294    291.78038    1424.3326    295.71224   -798.83144    -503.1192    -408.3693    -54.92065    4873.0426    -1639.735    94.260392    133.15966    613.48346            0    840.90352   -6457.8569   -48.271156      16.5843      16.5843      16.5843            0            0            0    1576.8531   -2783.8497   -4542.0696    210.12475     353.2546    3709.6185 
   13000    4561.3294     309.0645    701.79683    313.22928   -779.10065   -465.87137   -419.18623   -69.985774    4863.4337   -1659.1232    97.415968    170.57327     612.0333            0    880.02254   -6452.5711   -48.271156      16.5843      16.5843      16.5843            0            0            0   -503.75356    1364.7611   -144.60305   -4174.4147    4768.0108    1511.7944 
   14000    4561.3294     287.9455     154.2792    291.82569   -810.55393   -518.72824   -508.46523   -94.526977     4890.834   -1662.0227    93.404408     139.3995     618.6649            0    851.46881   -6458.3298   -48.271156      16.5843      16.5843      16.5843            0            0            0   -745.46257    2113.4196    1818.0032    195.61602    2261.3322   -1994.1106 
   15000    4561.3294     315.1992   -2010.3769    319.44664    -770.1423   -450.69567   -584.43058   -102.06115    4868.7253   -1688.7912    103.89483    193.44027    621.31376            0    918.64885   -6455.4553   -48.271156      16.5843      16.5843      16.5843            0            0            0   -3063.3417    557.60572   -518.68928   -1833.8926   -6401.3711    2204.1331 
   16000    4561.3294    296.81426    2105.4786    300.81396   -780.68474   -479.87078   -339.80948   -75.615697    4859.1378   -1673.5913    106.79585    173.80749    612.30323            0    892.90658   -6457.1134   -48.271156      16.5843      16.5843      16.5843            0            0            0   -3478.0665    1054.0793    1505.5769     2861.139   -1170.4655    4625.7623 
   17000    4561.3294    302.48539    1165.3029    306.56151   -783.33332   -476.77181   -399.25317   -61.149931    4865.3499   -1653.0163     87.54855    168.26331    613.87111            0    869.68298   -6457.2163   -48.271156      16.5843      16.5843      16.5843            0            0            0   -4618.1753     2632.245   -49.890736   -1633.6476    4012.9446    1116.6117 
   18000    4561.3294    294.98877   -163.74554    298.96387   -775.00522   -476.04135   -486.93408   -76.476191    4875.4325   -1654.8472    110.19027    153.64058    616.01113            0    879.84199   -6453.8035   -48.271156      16.5843      16.5843      16.5843            0            0            0    1567.8235   -3119.0649    3062.7486   -3991.0124   -583.25893    4083.0347 
   19000    4561.3294    289.15835   -3064.9588    293.05488   -753.05275   -459.99787   -663.88601   -63.026033    4881.0771   -1635.5009    116.84857    156.20675    609.39287            0    882.44819    -6453.552   -48.271156      16.5843      16.5843      16.5843            0            0            0    1797.8989    3071.4771    6541.9861   -2365.2841   -2020.7523     -4808.84 
   20000    4561.3294    280.04801   -1635.6489    283.82177   -799.86731   -516.04554   -624.85269   -98.819983     4876.098   -1676.0396    101.80988    146.21752     628.1449            0    876.17229   -6453.3177   -48.271156      16.5843      16.5843      16.5843            0            0            0    -635.6377    1267.6888   -2202.8479   -7788.2902    5138.2659   -2256.9225 
   21000    4561.3294    301.32686    100.83372    305.38736   -781.50481   -476.11744   -469.40975   -65.966142    4834.2673   -1682.1755    107.17233    172.52283    620.97558            0    900.67074   -6450.4767   -48.271156      16.5843      16.5843      16.5843            0            0            0   -1101.8287   -1883.4873   -3299.4705   -373.02178    4490.1999    -3814.677 
   22000    4561.3294      285.398   -2791.5405    289.24386   -803.03423   -513.79037   -699.49009   -74.491758    4850.9371   -1679.4958    101.71424    161.01363    613.73366            0    876.46153   -6455.9411   -48.271156      16.5843      16.5843      16.5843            0            0            0   -34.928003    3369.8336    2814.3017   -2320.4324   -1829.7256   -4224.4634 
   23000    4561.3294    281.03908    6.5638674     284.8262   -779.31825   -494.49205   -494.05541   -77.813148    4864.9792   -1669.4076    104.54391    166.03708     619.5084            0    890.08939   -6456.5737   -48.271156      16.5843      16.5843      16.5843            0            0            0   -3173.2113   -2725.4568    -3783.452   -358.22713    2863.4371   -2485.5184 
   24000    4561.3294    313.44378    1905.4353    317.66757   -776.12128   -458.45371   -331.69976   -64.237444     4875.396     -1642.89    103.49341    145.05375    618.22154            0    866.76871   -6454.0486   -48.271156      16.5843      16.5843      16.5843            0            0            0    3092.2646    109.15416     1387.416   -76.954179    1676.7619    4116.4981 
   25000    4561.3294    283.37642    -2339.205    287.19504   -796.95266   -509.75763   -665.36695   -68.110569    4865.6145    -1655.849    111.76177    136.64543     610.4891            0     858.8963   -6453.3529   -48.271156      16.5843      16.5843      16.5843            0            0            0    470.86593   -103.77662    865.70324   -4258.5404   -4328.8607     1569.786 
   26000    4561.3294    294.96336   -2076.1446    298.93811   -763.96376   -465.02565   -603.13559   -78.614437     4882.032   -1651.3155    96.660153    174.67861    616.01297            0    887.35172    -6454.733   -48.271156      16.5843      16.5843      16.5843            0            0            0    2279.0719     795.6731   -1833.0946   -7192.0962    553.49954    410.16273 
   27000    4561.3294    285.40667   -4188.0813    289.25265   -811.72516   -522.47251   -801.07336   -89.784617    4862.4177   -1686.5362     105.8533    158.14607     610.8117            0    874.81108   -6459.1693   -48.271156      16.5843      16.5843      16.5843            0            0            0   -1762.4522   -1561.5178    635.27567   -10516.983   -1114.8374    -932.4233 
   28000    4561.3294    284.82353   -5260.5775    288.66164    -780.7207   -492.05905   -842.00482   -88.028283    4883.1482   -1662.4879    104.10675    151.35566    626.30478            0    881.76719   -6457.6078   -48.271156      16.5843      16.5843      16.5843            0            0            0   -660.14402   -1323.8306   -343.43805   -6756.0015   -8271.9268    -753.8042 
   29000    4561.3294    318.92019    1143.1492    323.21777   -768.49036    -445.2726   -369.22767   -68.164003    4873.4968   -1650.2721    98.198852    165.07362    618.50926            0    881.78173   -6455.6049   -48.271156      16.5843      16.5843      16.5843            0            0            0   -2437.4867    2633.4222   -2888.1591   -4490.4647    8399.2983   -479.38586 
   30000    4561.3294    308.07364    479.51813    312.22506   -803.06216   -490.83709   -458.93844    -86.96887    4876.5876   -1668.9096    94.574876    151.73922    619.53331            0     865.8474   -6458.5283   -48.271156      16.5843      16.5843      16.5843            0            0            0   -1162.2072   -437.57811   -3716.2525   -47.598062    1668.2056    -182.0532 
   31000    4561.3294    314.46004   -1230.6844    318.69752   -791.84451   -473.14699   -555.01496   -62.103974    4869.2755   -1647.1596    93.512113     147.4441    614.35889            0     855.3151   -6454.3312   -48.271156      16.5843      16.5843      16.5843            0            0            0    2710.1685    1963.7603   -354.40556    -1159.855   -1602.3359   -929.86235 
   32000    4561.3294    312.16865   -1098.3841    316.37525   -785.93197   -469.55672   -542.62376    -89.01029    4861.7269   -1678.6801    96.197334    175.25881    621.29199            0    892.74814   -6451.3967   -48.271156      16.5843      16.5843      16.5843            0            0            0     1693.298    2278.6969   -381.37705    2455.5573   -246.10709   -5504.6025 
   33000    4561.3294     296.6231    5253.8338    300.62022   -749.76418   -449.14396   -99.646795   -61.752817    4852.7557   -1666.9485    108.54659    192.70683    615.93093            0    917.18435   -6457.9514   -48.271156      16.5843      16.5843      16.5843            0            0            0    3358.7113   -2377.9649   -2353.2173    6175.8256    2451.7647    7133.9112 
   34000    4561.3294    290.48315   -3401.3646    294.39754   -774.72008   -480.32255   -706.58918   -79.061386    4867.9591   -1665.4757    99.313901    171.63511    619.80665            0    890.75566   -6454.3735   -48.271156      16.5843      16.5843      16.5843            0            0            0   -2991.9943    2253.8752    2731.7984   -3913.5323    1276.9033   -7567.4648 
   35000    4561.3294    305.67609   -1098.1354     309.7952   -762.46729   -452.67209   -525.72259    -57.37005    4860.6502   -1644.3078    103.93203    161.97076    615.93772            0    881.84051    -6447.588   -48.271156      16.5843      16.5843      16.5843            0            0            0    3916.4474    2235.3854   -3022.2501   -2437.6615    2180.4524   -3037.1971 
   36000    4561.3294    309.91772     577.5166    314.09399   -766.25837   -452.16438   -413.74664   -58.881024    4873.3101    -1642.651    104.14866    151.12261    621.12137            0    876.39264   -6457.0801   -48.271156      16.5843      16.5843      16.5843            0            0            0   -970.93273   -573.40746    4089.3437    2362.9193    2743.3371   -3373.7066 
   37000    4561.3294    294.26076    1324.5353    298.22605   -780.58051   -482.35446   -394.24331   -80.582533    4887.7628   -1649.3192    92.281071    157.04407    619.41358            0    868.73873   -6456.4995   -48.271156      16.5843      16.5843      16.5843            0            0            0   -1039.3545    2013.1322   -1592.0293    2131.5298    2439.0349   -596.95892 
   38000    4561.3294    306.93839   -1931.3694    311.07452     -764.005   -452.93049   -581.40965   -78.827401    4894.0479   -1638.6697    106.69428    154.73916    613.23123            0    874.66466   -6453.8901   -48.271156      16.5843      16.5843      16.5843            0            0            0   -46.281815   -1403.3076   -678.60535   -6674.0124   -5209.4028    6089.3068 
   39000    4561.3294    286.66901    703.42321    290.53199   -783.07976   -492.54777   -445.75443   -78.982243    4892.8185   -1640.3339    91.815505    149.84054    615.59811            0    857.25415   -6454.1702   -48.271156      16.5843      16.5843      16.5843            0            0            0   -2035.0758   -6854.3422    246.98299    722.20847   -1974.2052    3362.2663 
   40000    4561.3294    297.44855   -403.00238    301.45679   -760.97533   -459.51854   -486.32719   -94.007383    4887.5838   -1658.9897    104.52725    171.48758    621.99951            0    898.01434   -6452.5661   -48.271156      16.5843      16.5843      16.5843            0            0            0   -1857.7184   -2768.9295   -3459.1971    1264.0007   -1443.6292   -1029.3787 
   41000    4561.3294    299.19682    2620.1306    303.22862   -795.27575   -492.04712   -317.74998   -60.745133    4835.4328   -1680.6251    88.379663    177.02005    619.94961            0    885.34932   -6455.3128   -48.271156      16.5843      16.5843      16.5843            0            0            0    1025.7622    5641.5514    210.11787    2402.7429    2513.5383    2944.1106 
   42000    4561.3294    304.07343     3756.945    308.17095    -771.7661   -463.59515   -213.67449   -72.430659    4877.1743   -1651.0654    94.241532    166.46431     618.5935            0    879.29934   -6455.8091   -48.271156      16.5843      16.5843      16.5843            0            0            0    1106.2482   -1135.3197    2180.6505    2193.0119    4459.5773    4618.2458 
   43000    4561.3294    287.58295    1396.8602    291.45825   -766.60343   -475.14518   -382.22281   -37.252988    4850.1962    -1641.137    100.74507    153.07848    620.70999            0    874.53355   -6454.0802   -48.271156      16.5843      16.5843      16.5843            0            0            0    1200.1623   -464.58861   -294.03779    1873.7902    3479.3466   -1162.5561 
   44000    4561.3294    297.56435    771.44974    301.57416    -750.8447   -449.27054   -397.95193   -71.040689     4875.914   -1650.4175    102.98857    178.70242    617.88181            0    899.57279   -6455.2908   -48.271156      16.5843      16.5843      16.5843            0            0            0      1678.05     1366.413    2945.9353    3359.5397    1900.9515    -2946.142 
   45000    4561.3294    281.18187    481.77513    284.97091   -774.04942    -489.0785   -457.02971   -53.642639    4852.9319   -1653.2041    106.49216    155.19163    617.47092            0     879.1547   -6452.4933   -48.271156      16.5843      16.5843      16.5843            0            0            0    1774.0042    100.98042    2235.4421   -4947.0246    6147.0229     245.3271 
   46000    4561.3294    317.58347   -4058.2204    321.86304   -778.28189   -456.41885   -726.38105   -77.373493    4858.4536   -1669.6276     106.6828    162.69734     621.9656            0    891.34573   -6450.7077   -48.271156      16.5843      16.5843      16.5843            0            0            0    1371.1272    2438.2838    45.396095   -9318.2368    1616.9774   -4473.4018 
   47000    4561.3294    300.74107    4403.5898    304.79368   -790.53275   -485.73908   -192.80211   -81.349864    4888.0151   -1648.9727    91.898132    148.51219    618.02958            0     858.4399   -6455.6379   -48.271156      16.5843      16.5843      16.5843            0            0            0    2167.7718    -842.6601    709.87121    3021.7119    3531.9961    6657.0612 
   48000    4561.3294    312.28626   -341.90309    316.49445   -748.64909   -432.15464   -454.89883   -69.824139    4877.9923   -1647.3684    109.11951    168.83751    620.76228            0     898.7193   -6455.5365   -48.271156      16.5843      16.5843      16.5843            0            0            0    239.13432    2861.7271    1142.4648   -3659.9033    3440.9781   -806.78416 
   49000    4561.3294     311.5642    1029.5044    315.76266    -784.5201   -468.75745   -400.27244   -83.610074    4858.6563   -1678.2937    108.95265    165.88624    618.93468            0    893.77358   -6453.3399   -48.271156      16.5843      16.5843      16.5843            0            0            0   -1718.0178    646.93259   -2072.0181    3261.9896   -4528.2868    4354.8103 
   50000    4561.3294    293.99384   -3670.9522    297.95553   -773.93402   -475.97849   -720.17871   -89.384887    4889.0508    -1654.711    99.682219    160.22522    620.86954            0    880.77698   -6454.3769   -48.271156      16.5843      16.5843      16.5843            0            0            0    4834.2477    1455.3972     3598.507   -1617.0397   -3598.2369   -5797.5798 
   51000    4561.3294    329.75588    445.61994    334.19948   -793.22138   -459.02189   -429.37823   -93.019499    4877.2687   -1670.9261     96.81055    166.42271    614.47145            0    877.70471   -6455.1753   -48.271156      16.5843      16.5843      16.5843            0            0            0   -4374.7641    -1655.973    1336.0643     1209.954   -874.83779    1001.7437 
   52000    4561.3294    295.10794    217.02374    299.08464   -768.17884    -469.0942   -454.65728   -95.177445    4887.5405   -1662.3084    101.23652    179.90972    612.98328            0    894.12952   -6454.6714   -48.271156      16.5843      16.5843      16.5843            0            0            0    2155.9495    181.78043    701.29538   -124.50396   -84.033406    859.60858 
   53000    4561.3294    288.98032   -3284.4829    292.87445   -770.45368   -477.57922   -696.07062    -93.24857    4874.8339   -1676.5554     118.1528    163.54368    624.40529            0    906.10176   -6458.1408   -48.271156      16.5843      16.5843      16.5843            0            0            0    35.154698    -4503.916    1903.1681   -7854.2371   -1029.2036   -970.00813 
   54000    4561.3294    301.39885    2021.9648    305.46032   -759.15762    -453.6973   -319.19153   -75.309484    4874.2665   -1657.1769    103.47282    174.09093    620.45553            0    898.01928   -6456.1339   -48.271156      16.5843      16.5843      16.5843            0            0            0    920.47638    3526.3509   -636.74914    2048.0682    3498.3553    519.47087 
   55000    4561.3294    280.53062   -1262.1704    284.31089   -801.40721   -517.09632   -601.05881   -70.977221    4863.6868   -1663.0065    87.904892    155.21955    618.47488            0    861.59932   -6455.7161   -48.271156      16.5843      16.5843      16.5843            0            0            0    1457.0113   -1738.4406   -159.88126   -1511.1025   -2472.5441    197.13542 
   56000    4561.3294    298.95665    2790.3702    302.98522   -813.68552    -510.7003   -325.07843   -79.710851    4878.5049    -1656.759    89.353065    134.30746    619.41291            0    843.07344    -6455.553   -48.271156      16.5843      16.5843      16.5843            0            0            0    1955.4384    3844.6355   -5829.2661    5061.1062    1319.8263    1990.1781 
   57000    4561.3294    275.28607   -11318.623    278.99567   -760.98473   -481.98906     -1234.93   -74.064734     4869.929   -1654.0713    116.12433    163.65578    613.30648            0     893.0866   -6449.9356   -48.271156      16.5843      16.5843      16.5843            0            0            0   -3984.9803    2542.4049   -2737.5254   -9054.4773   -12506.916   -12394.475 
   58000    4561.3294    297.60475    2140.5312     301.6151   -760.32088   -458.70578    -316.3127   -70.329364    4864.3261    -1661.344    104.36148    186.59063    610.07105            0    901.02316   -6455.3408   -48.271156      16.5843      16.5843      16.5843            0            0            0     5209.503    1866.8883   -2800.8609   -4511.1525    2993.6655    7939.0807 
   59000    4561.3294    292.95004   -2201.0851    296.89767   -778.57421   -481.67654   -628.09781   -90.148029     4868.822   -1673.7132    106.53647    172.13321    616.46934            0    895.13903   -6452.3873   -48.271156      16.5843      16.5843      16.5843            0            0            0   -2540.3348   -433.84676   -497.06953   -3561.3265    1481.8655   -4523.7942 
   60000    4561.3294    303.25563   -804.42463    307.34212   -763.86373   -456.52161   -510.03379   -78.377023    4879.5988   -1652.7398    102.51125    166.62839    619.73645            0    888.87608   -6453.9616   -48.271156      16.5843      16.5843      16.5843            0            0            0    2262.2544    3019.8356   -3347.6675   -3771.8995    1321.1873    37.438351 
   61000    4561.3294    303.72074   -2514.0096     307.8135   -752.33722   -444.52372   -611.76145   -68.987453     4880.288    -1645.714    120.49022    158.80052    614.08599            0    893.37674   -6457.0145   -48.271156      16.5843      16.5843      16.5843            0            0            0    2253.4062    92.377049   -3596.3811   -956.17431   -1634.0218   -4951.8328 
   62000    4561.3294    276.51751   -1802.8407     280.2437   -785.19001   -504.94631   -624.87544   -78.238331    4878.8108   -1654.1593    101.47738    152.08649    615.40545            0    868.96933   -6454.7318   -48.271156      16.5843      16.5843      16.5843            0            0            0   -1900.8849   -225.20976   -1245.6635    2.2947263   -2716.1048   -2694.7121 
   63000    4561.3294    295.33123   -357.37487    299.31094     -775.554   -476.24306   -500.01646   -74.826888    4872.6806   -1658.0088    102.21481    160.52832    619.71163            0    882.45476   -6455.8624   -48.271156      16.5843      16.5843      16.5843            0            0            0    2182.8072   -266.71298    2481.9188    1950.8224   -2318.8547   -704.09225 
   64000    4561.3294    286.43311   -1902.0553    290.29291   -791.21075   -500.91784   -627.44695   -81.563269    4887.4494   -1642.7159    100.41606     134.7467    616.34237            0    851.50512    -6448.602   -48.271156      16.5843      16.5843      16.5843            0            0            0    1425.5681    4146.5419   -1257.4628    -853.9175   -270.86033   -4581.3881 
   65000    4561.3294    299.74517   -3118.5262    303.78436   -790.96408   -487.17973   -694.63129    -83.49357    4874.3706   -1664.2396    86.539701    169.42246    617.31339            0    873.27555   -6455.1167   -48.271156      16.5843      16.5843      16.5843            0            0            0   -1056.5123   -1741.5359     3639.382   -1317.8288   -5426.8256   -2610.9241 
   66000    4561.3294    290.12171    259.37451    294.03122   -767.51726   -473.48604   -456.23185   -66.022247    4852.4611   -1666.7895    106.09836    166.92448    626.24935            0    899.27219   -6453.2283   -48.271156      16.5843      16.5843      16.5843            0            0            0    4109.1767    500.77665    -1364.626    -465.6596    1991.0209   -747.23776 
   67000    4561.3294    266.25562   -1951.3168    269.84353    -769.5181   -499.67457   -629.48067   -80.077474    4883.4167   -1653.2302    103.74931    166.46896    613.49385            0    883.71212   -6456.5694   -48.271156      16.5843      16.5843      16.5843            0            0            0   -3865.3211   -106.64946   -1099.2569   -4865.8021    4006.0954   -4994.2437 
   68000    4561.3294     287.7252     454.5694    291.60242   -774.75433   -483.15192   -452.91291   -76.590752    4880.7233   -1650.6804    96.654044    159.00557    620.26645            0    875.92607    -6454.813   -48.271156      16.5843      16.5843      16.5843            0            0            0    3130.5908    5096.9228   -141.74395   -1070.0001   -712.59801    3146.3063 
   69000    4561.3294    284.96566   -671.64338    288.80569   -776.20464   -487.39895   -532.07822   -88.537449     4890.873   -1653.3119    95.404033    157.94071    623.76249            0    877.10724   -6455.6474   -48.271156      16.5843      16.5843      16.5843            0            0            0   -1342.8001    1575.3862     -1066.62     1961.434   -1489.9854   -2486.3787 
   70000    4561.3294    291.84022   -52.958194    295.77289   -741.32522   -445.55233   -449.07523   -97.172568    4911.3897   -1641.8047     104.8572    180.74502    614.87724            0    900.47945   -6456.0218   -48.271156      16.5843      16.5843      16.5843            0            0            0     4108.654    69.116115   -628.16963    1791.4972   -1425.7062   -524.66563 
   71000    4561.3294    283.72587   -3425.5687    287.54919   -765.67557   -478.12638   -706.00312   -77.448515    4889.0853   -1643.7146    110.84698    156.41915    610.77288            0    878.03901   -6455.3514   -48.271156      16.5843      16.5843      16.5843            0            0            0    1870.8881    136.85285   -401.89451   -4227.2238   -1111.5648   -4937.9174 
   72000    4561.3294    313.61559    3636.4989    317.84169   -783.93791   -466.09623   -224.18792   -90.315325    4900.5965   -1645.7828    89.771508    151.79802    620.27539            0    861.84492    -6456.064   -48.271156      16.5843      16.5843      16.5843            0            0            0   -872.16302    3113.2279   -800.62582    1863.0084   -1977.4587    11023.947 
   73000    4561.3294    282.40388   -3728.6927    286.20939   -783.86008    -497.6507   -745.69195   -89.191905    4872.6584   -1671.0339    101.28547     170.7491    615.13927            0    887.17385   -6454.5005   -48.271156      16.5843      16.5843      16.5843            0            0            0    312.99432   -2334.5219    3405.6384   -4777.1721   -578.07533   -5830.8307 
   74000    4561.3294    283.22548    2908.5781    287.04206   -763.06759   -476.02553   -282.54019   -73.342887    4875.2128   -1653.4796    87.953999    180.57528    621.88275            0    890.41202   -6455.3495   -48.271156      16.5843      16.5843      16.5843            0            0            0    1041.5873    1934.7401    104.97791    892.91334    1686.5094    6146.3116 
   75000    4561.3294    292.91704   -2649.1193    296.86421   -771.71533   -474.85112   -651.07666   -101.43814    4897.4353   -1662.9182    107.76687    167.28156    616.15444            0    891.20287   -6458.9154   -48.271156      16.5843      16.5843      16.5843            0            0            0    225.14373   -1342.9718    2535.8642   -1180.0938   -1692.9064   -5074.3577 
   76000    4561.3294    297.29788    2240.0302    301.30409   -788.53126   -487.22717   -338.21519   -61.384704    4863.4086   -1654.8652    99.535852    146.89505    619.90303            0    866.33393   -6456.8891   -48.271156      16.5843      16.5843      16.5843            0            0            0   -2690.5477    3293.5554   -898.66883    6903.6623   -2934.7383    2751.1664 
   77000    4561.3294     308.3093   -4844.6917    312.46389   -782.53623   -470.07234   -792.35243   -96.911058    4896.0007    -1658.997    95.263379     161.0822    620.11514            0    876.46072   -6458.0866   -48.271156      16.5843      16.5843      16.5843            0            0            0   -838.26049    1656.6287    1872.5475   -6458.4701   -2649.0396   -5426.5654 
   78000    4561.3294    305.73863   -1522.2549    309.85858   -801.46615   -491.60756   -592.87147   -64.760371    4833.4064   -1684.7797    108.36555     156.3819    618.56612            0    883.31356   -6453.4258   -48.271156      16.5843      16.5843      16.5843            0            0            0   -1055.1747   -1920.3561   -3364.6934    39.898824   -4089.4624   -517.20105 
   79000    4561.3294    299.80907   -2884.5319    303.84912    -779.5067   -475.65758    -667.5433   -79.506839     4865.969    -1671.446    107.38479    164.92691    619.62756            0    891.93926   -6457.9081   -48.271156      16.5843      16.5843      16.5843            0            0            0   -1326.0002    205.90619   -2738.7144   -2947.1006   -924.20513   -4782.2899 
   80000    4561.3294    289.24718   -1199.6529    293.14491   -779.59977   -486.45486   -566.25854   -83.565443    4876.7616   -1660.9254    101.42728    162.49839    617.39994            0    881.32561   -6454.1216   -48.271156      16.5843      16.5843      16.5843            0            0            0     -2252.24    2146.9741    653.10859   -3961.3141    1054.3084   -691.95302 
   81000    4561.3294    288.12256    2638.9197    292.00513   -766.57073    -474.5656   -299.01856   -52.691057    4846.9189   -1665.0927    101.20912     177.9809    619.33199            0    898.52201   -6459.3205   -48.271156      16.5843      16.5843      16.5843            0            0            0   -1468.1819    1627.1537    -243.5426    7222.9952   -1309.7905    2003.5543 
   82000    4561.3294    275.67054    1128.4806    279.38532   -770.45345   -491.06813     -415.999   -69.055933    4876.2104   -1648.7615     107.8058    151.00878     619.4935            0    878.30808    -6455.916   -48.271156      16.5843      16.5843      16.5843            0            0            0    2771.8786   -369.32913   -1885.5951    3573.2612   -229.25088    41.431494 
   83000    4561.3294     290.0864   -4315.2322    293.99544   -752.44891   -458.45347   -745.51269   -77.702917    4880.0964    -1653.422    114.53835     169.9791    616.45568            0    900.97314   -6455.8155   -48.271156      16.5843      16.5843      16.5843            0            0            0   -6667.6977    1319.2394    1961.3361    -2247.789   -7548.2393   -3149.6683 
   84000    4561.3294    302.96474   -1184.7886    307.04732   -797.97996   -490.93264   -569.74752   -80.896316    4869.3087   -1670.0935    100.01566    161.34142    610.75647            0    872.11355   -6458.5059   -48.271156      16.5843      16.5843      16.5843            0            0            0    780.55066   -1973.4795   -4535.9015   -1164.6355   -463.45966   -1926.2708 
   85000    4561.3294    306.51274   -1214.9989    310.64313   -784.63761   -473.99448   -554.81901   -76.698843    4879.4385   -1654.1551    92.433896    165.40988    611.67375            0    869.51753   -6456.8948   -48.271156      16.5843      16.5843      16.5843            0            0            0   -4083.5773   -3917.7095   -1144.6769   -3333.9498   -89.625242   -221.42162 
   86000    4561.3294    299.67851    2039.1415     303.7168   -786.15501   -482.43822   -346.78981   -66.889866    4875.4629   -1645.2923    88.218301    145.42194    625.49704            0    859.13728   -6453.8654   -48.271156      16.5843      16.5843      16.5843            0            0            0   -3353.2769   -1713.6192   -707.93942    4231.4773    1857.1683    28.778941 
   87000    4561.3294    303.18556   -1192.6626    307.27111   -783.49231   -476.22119   -555.55987   -98.487969    4905.2565   -1650.5317    107.38841    145.00203    614.64895            0    867.03938   -6457.3002   -48.271156      16.5843      16.5843      16.5843            0            0            0    1618.6938   -5444.3321   -1791.0061     3078.889   -3575.0584   -3081.8184 
   88000    4561.3294     290.0606    580.19042    293.96928    -752.7875   -458.81821   -420.22261   -77.596675    4897.2037   -1631.5012    107.95933    149.71461     621.0398            0    878.71375   -6451.1082   -48.271156      16.5843      16.5843      16.5843            0            0            0   -3327.9504    4311.7102   -4598.5754    6091.2717   -4030.7856   -319.91484 
   89000    4561.3294    307.43364   -92.330553    311.57643   -767.96456   -456.38813   -462.53017   -86.298664    4888.3152   -1651.7226    100.16246    162.32205    621.27355            0    883.75806   -6453.7392   -48.271156      16.5843      16.5843      16.5843            0            0            0    -1157.169   -1553.6004    2320.7866   -828.03085   -945.83424    1496.8734 
   90000    4561.3294     316.3862    1930.2216    320.64964   -777.45946   -456.80982   -328.40702   -100.93411    4909.4471   -1640.7151    95.623074    152.11147     615.5211            0    863.25565   -6449.2281   -48.271156      16.5843      16.5843      16.5843            0            0            0   -3436.8218   -2243.3967   -1220.3481    3239.6922     3019.255   -468.28233 
   91000    4561.3294    303.86148   -4134.8812    307.95614   -745.61849   -437.66235    -712.7242   -96.158069    4898.2633   -1648.9348     115.4329    164.72081    623.16263            0    903.31634   -6451.0401   -48.271156      16.5843      16.5843      16.5843            0            0            0    -6791.234   -885.41296   -2389.3813   -3212.2187   -3594.1995   -5598.2253 
   92000    4561.3294    334.03936   -1026.2951    338.54068   -772.55615   -434.01548     -502.287   -84.708369    4854.9193   -1679.8627    113.46839    171.75014    622.08798            0    907.30651   -6450.0736   -48.271156      16.5843      16.5843      16.5843            0            0            0   -1767.6838   -4827.2208      3886.76   -5172.9302   -2010.0397    4104.0846 
   93000    4561.3294     305.5714   -3244.2313    309.68911   -783.91279   -474.22369   -690.03745   -113.89287    4884.5831   -1678.6285    101.46557    166.58784    626.66234            0    894.71575   -6449.3188   -48.271156      16.5843      16.5843      16.5843            0            0            0    626.28009    719.01934   -2162.0712   -6616.5629    230.20242   -3346.3334 
   94000    4561.3294    288.02132    1287.5658    291.90253   -756.37694   -464.47441   -378.82256   -78.229354    4868.1183   -1663.0292    117.35289    169.78622    619.51312            0    906.65222   -6452.9181   -48.271156      16.5843      16.5843      16.5843            0            0            0    3139.7447    3163.7086    -716.2583     1040.982    906.59391    1915.1216 
   95000    4561.3294    283.26647    195.81792     287.0836   -768.20319   -481.11959   -468.09333   -71.105446    4848.1412   -1674.7926    103.32899    185.29074    617.96967            0     906.5894   -6451.8284   -48.271156      16.5843      16.5843      16.5843            0            0            0   -1.0965614   -1133.6026   -3948.4339   -2041.5202    2678.6425   -49.668563 
   96000    4561.3294    285.73644    383.55552    289.58685   -767.81121   -478.22435   -452.70936   -93.679634    4875.4739   -1671.2963    105.42332    174.47166    623.59009            0    903.48508   -6453.0906   -48.271156      16.5843      16.5843      16.5843            0            0            0   -2132.6982    2288.6124   -508.99137   -83.105308   -392.32123    1626.0931 
   97000    4561.3294     265.6725   -5823.9113    269.25255   -766.69923   -497.44669   -884.86672   -93.185795    4872.4195   -1675.8445    112.75104    173.20544    623.18874            0    909.14522   -6455.0781   -48.271156      16.5843      16.5843      16.5843            0            0            0      4481.45   -2459.6724     3279.646    -3317.453   -6419.0385   -7735.2423 
   98000    4561.3294    305.77822    489.46615    309.89871    -767.1889   -457.29019   -424.72977   -106.14268    4906.5288   -1654.1859    109.45217    155.28715    622.25772            0    886.99704    -6454.572   -48.271156      16.5843      16.5843      16.5843            0            0            0    2531.7252     2112.068   -2290.6989   -2800.8474     1385.984    2883.2619 
   99000    4561.3294    296.24024   -2707.5376     300.2322   -787.70406   -487.47186   -667.58352   -85.051875    4864.8259   -1674.0963    101.55738    166.40718    618.42772            0    886.39228   -6453.8703   -48.271156      16.5843      16.5843      16.5843            0            0            0   -4026.7598    2928.4641   -477.54184   -2902.4182   -2921.2977   -2298.8968 
  100000    4561.3294    330.98896    1237.2623    335.44917   -782.07883   -446.62966   -364.32411   -86.072165    4884.4438   -1656.2672    93.649404    164.46897    616.06999            0    874.18836   -6454.6388   -48.271156      16.5843      16.5843      16.5843            0            0            0    1543.7631   -4224.4143   -2343.9694    1750.2057    445.31457    1516.2668 
  101000    4561.3294    308.33612    3670.6534    312.49108   -767.75613   -455.26506   -211.08471   -45.593441    4857.0349   -1638.8805    95.807915    162.02765    613.28877            0    871.12433    -6450.322   -48.271156      16.5843      16.5843      16.5843            0            0            0   -2720.3104    651.73265    244.16875    4516.8367    3184.1459    3310.9775 
  102000    4561.3294    280.03109    6168.6288    283.80462   -762.05372    -478.2491   -67.897654   -72.407179     4876.975   -1648.4836    102.00035    167.13613    617.29337            0    886.42985   -6453.0514   -48.271156      16.5843      16.5843      16.5843            0            0            0    4340.0523   -3098.6634    1274.6765    1755.2535    11645.131    5105.5016 
  103000    4561.3294    281.64463   -3900.1545    285.43991   -790.04693   -504.60702   -764.05431   -91.978867    4888.9171   -1656.2414    98.406929    146.77154    621.01598            0    866.19445   -6453.1797   -48.271156      16.5843      16.5843      16.5843            0            0            0   -3280.1884   -987.75341    2777.5994   -7070.9673   -3035.4558   -1594.0404 
  104000    4561.3294    299.20277    4366.1653    303.23465    -760.6507   -457.41604   -166.96864   -58.034398    4856.6223   -1659.9815    112.65963    164.22981    622.44132            0    899.33075   -6458.5693   -48.271156      16.5843      16.5843      16.5843            0            0            0    2820.3923   -2358.3087    323.97918    1512.4512    5808.6742    5777.3706 
  105000    4561.3294    312.09214    1357.4219    316.29771   -742.99387   -426.69617   -336.39733   -61.257115    4869.1047   -1644.6912    114.75425     165.1977    621.74536            0     901.6973   -6452.5388   -48.271156      16.5843      16.5843      16.5843            0            0            0   -4267.8098     1216.232    264.70848    1979.9109    2935.1759   -842.82114 
  106000    4561.3294    281.04206   -1764.2709    284.82922    -767.7441   -482.91488   -600.27826   -94.039317    4893.6816    -1653.237     92.87639    169.90773    622.70882            0    885.49293   -6452.8793   -48.271156      16.5843      16.5843      16.5843            0            0            0    13.530683   -2149.4457    204.07584   -1575.3286   -4809.2801    1091.7959 
  107000    4561.3294     300.5572    1376.4496    304.60733   -761.39436   -456.78703   -365.22242   -93.205612    4910.8219   -1634.6329    89.118083    161.51419    622.60626            0    873.23853   -6452.2492   -48.271156      16.5843      16.5843      16.5843            0            0            0   -1243.5839    1623.9406    3585.4319    3494.2443    2508.9853   -1873.8809 
  108000    4561.3294    287.45521   -4590.1994    291.32879   -750.60404   -459.27524   -764.62591   -89.198183    4906.5692   -1634.1226     104.4019    160.12719    618.98946            0    883.51855   -6451.4936   -48.271156      16.5843      16.5843      16.5843            0            0            0   -720.24345    2528.9032    713.17057   -7718.6014   -3377.1284   -2674.8685 
  109000    4561.3294    296.35204   -4855.6228    300.34551   -757.94903   -457.60352   -780.61076   -113.78716    4907.0822   -1657.1444    115.79204    164.90024    618.50306            0    899.19534   -6450.4394   -48.271156      16.5843      16.5843      16.5843            0            0            0    5548.5413   -1013.1204   -4773.2275   -1176.6811   -5497.0888   -7893.0986 
  110000    4561.3294    310.52999     328.5309    314.71451   -773.87364   -459.15913   -437.30449   -86.415842    4883.6294   -1654.4215    99.398693    164.46678    616.68244            0    880.54791   -6451.6351   -48.271156      16.5843      16.5843      16.5843            0            0            0     864.7066   -4880.5634    1045.0554     1415.703    3374.4254   -3804.5357 
  111000    4561.3294    290.08879    1505.0823    293.99786   -756.67448   -462.67662   -362.55507   -75.605893    4872.0905    -1653.192     97.43699    182.10109    616.97939            0    896.51747   -6449.6766   -48.271156      16.5843      16.5843      16.5843            0            0            0    2719.2737   -2658.1204   -40.416133    2266.8561    4396.1453   -2147.7546 
  112000    4561.3294    308.97919     1566.617    313.14282   -735.55529   -422.41248    -318.1975   -100.39791    4893.1321   -1661.3277    114.05234    188.31503      623.405            0    925.77237   -6454.0619   -48.271156      16.5843      16.5843      16.5843            0            0            0   -279.43886   -1879.9575   -792.07058    6044.2401    686.26585   -2030.6551 
  113000    4561.3294    295.53322   -2541.6395    299.51565   -774.16475    -474.6491   -643.72483   -92.066954    4870.8896   -1675.3983    122.36671    157.34581    621.52101            0    901.23353   -6454.2209   -48.271156      16.5843      16.5843      16.5843            0            0            0    1211.0196   -189.35216   -3997.6852   -4679.8236    3558.9863   -6504.0811 
  114000    4561.3294    281.10414    1217.2033    284.89214   -763.85068   -478.95854   -397.98736    -71.53275    4869.0598   -1658.3812     107.2364    168.70299    618.59113            0    894.53053   -6455.9083   -48.271156      16.5843      16.5843      16.5843            0            0            0    374.50901    232.86576   -3754.5675    153.36356    2849.7276    648.51877 
  115000    4561.3294    301.59307   -2698.0102    305.65716   -772.93941   -467.28225   -646.76012   -72.386905    4884.3906   -1644.5904    100.12474    153.30453    618.22167            0    871.65095    -6456.594   -48.271156      16.5843      16.5843      16.5843            0            0            0   -5876.7152    367.93088   -2113.5671   -4947.8306   -3427.0921    280.89214 
  116000    4561.3294    281.22971   -3130.0864     285.0194   -793.07894   -508.05954   -716.28012   -92.833282     4877.616   -1672.8939    102.12838    158.09927    619.58731            0    879.81495   -6457.6766   -48.271156      16.5843      16.5843      16.5843            0            0            0   -1443.8896     3130.585    2871.4714   -4840.9077   -2727.1883   -1822.1631 
  117000    4561.3294    290.50443   -1080.0451    294.41909   -757.33839    -462.9193   -534.76639    -60.57273    4865.9628   -1650.0984    115.48016    152.75575    624.52413            0    892.76004   -6455.4885   -48.271156      16.5843      16.5843      16.5843            0            0            0    3364.9907    2833.3538   -3693.2824    9.3601444    2689.0941   -5938.5896 
  118000    4561.3294     299.8204    3638.9372    303.86061   -802.24855   -498.38794   -256.31743   -84.311088    4862.6684   -1676.3003    96.511882    152.27612    625.26373            0    874.05173   -6454.6576   -48.271156      16.5843      16.5843      16.5843            0            0            0     2398.385   -2733.4949   -1500.1872    1508.1665    1365.2851    8043.3598 
  119000    4561.3294     293.5991   -397.59944    297.55547   -768.41721   -470.86174   -497.31098   -71.701803    4857.9322   -1664.6502    99.567522    178.68812    617.97732            0    896.23296   -6450.8806   -48.271156      16.5843      16.5843      16.5843            0            0            0    505.49476    721.09525    1689.8574   -3168.6085    411.52958    1564.2806 
  120000    4561.3294    273.99415    2554.7698    277.68633   -804.23392   -526.54759    -356.5984   -88.979207    4885.9193   -1658.0674    89.832714    145.89242    618.10838            0    853.83352   -6455.0076   -48.271156      16.5843      16.5843      16.5843            0            0            0   -701.15336   -507.60217    -808.2342   -1430.6721    3707.7193    5387.2621 
  121000    4561.3294    287.58912   -803.71162     291.4645   -769.88555   -478.42105    -531.8858   -84.174169    4897.9604   -1638.4732    96.550893    148.86851    623.16828            0    868.58768   -6452.2595   -48.271156      16.5843      16.5843      16.5843            0            0            0   -913.78675   -1187.4894   -479.83293   -899.96801    359.80314     -1870.97 
  122000    4561.3294    279.11715    226.99259    282.87837   -781.55477    -498.6764   -483.57633   -106.92583    4899.2869   -1660.9165    96.731964    159.46032    623.16945            0    879.36173   -6453.2776   -48.271156      16.5843      16.5843      16.5843            0            0            0   -1967.2542    -1390.336   -2471.0778    -2645.576    2941.9315    384.62229 
  123000    4561.3294    307.63499    100.87459     311.7805   -758.57396   -446.79346   -440.08305   -78.585229    4889.0632   -1645.7174    105.93215    159.90274     621.3085            0     887.1434   -6456.1953   -48.271156      16.5843      16.5843      16.5843            0            0            0     1698.473    500.17267   -2617.0779    1646.7517    1267.6836   -2611.8115 
  124000    4561.3294    304.05731   -8209.2364    308.15461   -755.36937   -447.21476   -993.31214   -102.87569    4877.0695   -1677.3439     126.3937    170.82634    624.75452            0    921.97456   -6451.5377   -48.271156      16.5843      16.5843      16.5843            0            0            0      3591.13    935.06874    1622.7347   -7293.7314   -12378.834   -4955.1438 
  125000    4561.3294    296.36671   -1870.8135    300.36038    -778.3222   -477.96182   -602.41266   -103.30804    4887.7358   -1669.6527    103.29778    180.08085    607.95185            0    891.33049   -6454.0804   -48.271156      16.5843      16.5843      16.5843            0            0            0    1621.3158   -3493.6659   -520.74807    1437.5587   -3216.7399   -3833.2594 
  126000    4561.3294    300.53237   -6834.3078    304.58217   -759.32819   -454.74602   -909.37996   -88.843164    4878.9005   -1662.6221    111.95389    173.05159    618.28848            0    903.29396   -6452.6795   -48.271156      16.5843      16.5843      16.5843            0            0            0     2437.537    1261.5443   -140.46562   -5847.9012   -9489.8965   -5165.1256 
  127000    4561.3294    301.76945    399.55245    305.83592   -787.08319   -481.24727   -454.66812   -94.516222    4878.1641   -1670.7025    95.087268    163.94473    624.58727            0    883.61927   -6454.3504   -48.271156      16.5843      16.5843      16.5843            0            0            0    3671.8378    2505.3383   -157.88792    5006.4963    47.815546   -3855.6545 
  128000    4561.3294    292.25867    1500.1405    296.19698   -788.35877   -492.16179   -392.36898   -75.104083    4859.8755   -1667.7905    105.04547    153.57056    620.81574            0    879.43177    -6452.562   -48.271156      16.5843      16.5843      16.5843            0            0            0   -1417.1102   -1827.2121   -905.13422   -969.28686    2053.7096    3415.9987 
  129000    4561.3294    295.45861   -1398.7821    299.44003   -787.47184    -488.0318   -581.08202   -81.847524    4857.3312   -1676.4924    94.614183    177.06649    617.33989            0    889.02057   -6451.9761   -48.271156      16.5843      16.5843      16.5843            0            0            0    1975.3157     915.3711    2796.3136   -4402.5446    118.45265    87.745532 
  130000    4561.3294    328.66613    -2662.963    333.09505   -769.97683   -436.88179   -614.02824   -92.129554    4880.3472   -1664.2581     94.37769     176.2294    623.67418            0    894.28127   -6452.4757   -48.271156      16.5843      16.5843      16.5843            0            0            0   -2994.4795     577.8531    1891.2071   -120.50507    77.960752   -7946.3446 
  131000    4561.3294    283.65688    39.177167    287.47928    -788.9407   -501.46143   -498.85527   -74.288306    4856.9119   -1672.1097    100.14527    163.90511    619.11859            0    883.16897   -6454.7333   -48.271156      16.5843      16.5843      16.5843            0            0            0    1221.8676    -921.8268    3986.8741   -1123.7409   -703.76105    1945.0335 
  132000    4561.3294    289.70055   -1313.8888    293.60438   -777.85531   -484.25093   -571.65385   -75.218481    4855.4215   -1672.1662    117.24835    160.24557    616.81701            0    894.31093   -6452.3692   -48.271156      16.5843      16.5843      16.5843            0            0            0    -899.4113   -1630.8037   -3714.8056   -2147.9705     -3986.41    2192.7139 
  133000    4561.3294    303.32524    3780.9482    307.41267   -807.89606   -500.48338   -248.96598   -86.134814    4862.6278   -1680.5877    96.624675    155.82215    620.24481            0    872.69164   -6457.0807   -48.271156      16.5843      16.5843      16.5843            0            0            0   -3323.4217   -989.63972   -1168.7745    4813.8315   -2284.0677    8813.0806 
  134000    4561.3294     304.1168    -317.3729     308.2149   -756.11446   -447.89956   -469.01194   -63.621147    4881.8745   -1630.8852    97.953489    163.46142    613.35586            0    874.77077   -6449.1386   -48.271156      16.5843      16.5843      16.5843            0            0            0    882.60158   -2900.4152   -1463.4327   -2196.3825    495.67364     748.5902 
  135000    4561.3294     315.2724   -3028.8158    319.52082   -792.97395   -473.45313   -674.93695   -104.38909    4896.2353   -1664.5795    112.10897    142.36804    617.12852            0    871.60553   -6456.4257   -48.271156      16.5843      16.5843      16.5843            0            0            0    3665.4287   -387.41167    95.631167    -6505.713    -226.9378   -2353.7965 
  136000    4561.3294    284.03863    215.00375    287.86617   -793.37997    -505.5138   -491.21125   -95.416654    4883.4606   -1670.7227    93.232023    157.47737    626.63331            0     877.3427   -6458.7666   -48.271156      16.5843      16.5843      16.5843            0            0            0   -919.43974   -3454.4307    1366.8444    350.97411    159.98349    134.05364 
  137000    4561.3294    288.18017    2304.5244    292.06351   -776.61076   -484.54724   -331.24495   -58.262874    4849.3651   -1663.0567    103.35076    161.42588    621.66935            0    886.44598    -6454.159   -48.271156      16.5843      16.5843      16.5843            0            0            0   -622.46095    539.81452    2917.2636   -11.386174     4031.347    2893.6125 
  138000    4561.3294    299.64777    1207.2953    303.68565   -793.90869   -490.22303   -409.91096   -73.833103    4853.1547     -1675.92    98.034196    160.74882    623.22835            0    882.01136   -6455.2417   -48.271156      16.5843      16.5843      16.5843            0            0            0    2222.2102   -188.83682    1149.8983    2286.0545    1114.4949    221.33666 
  139000    4561.3294     276.4318   -1832.7449    280.15683   -770.74902   -490.59219   -612.51061   -61.272276    4849.9186   -1665.7711    114.59368    160.61604    619.81234            0    895.02207   -6454.4174   -48.271156      16.5843      16.5843      16.5843            0            0            0    4540.4796   -1158.1715    2712.1509   -348.04657   -3843.1296   -1307.0585 
  140000    4561.3294    308.62664   -1674.1946    312.78552   -740.29341   -427.50789   -538.87918   -85.323194    4894.7335   -1643.9393    108.69773    172.44949    622.49869            0     903.6459   -6453.3496   -48.271156      16.5843      16.5843      16.5843            0            0            0    -2078.253   -1329.9676   -917.67508   -3214.1861     1351.143   -3159.5407 
  141000    4561.3294    320.08259    467.56097    324.39583   -778.94436   -454.54853   -423.44529   -77.192338    4857.3301    -1673.162    114.39364    163.33626     616.4877            0    894.21761   -6453.2997   -48.271156      16.5843      16.5843      16.5843            0            0            0    3621.8558    1572.8014   -88.105058     44.40751    960.32267    397.95274 
  142000    4561.3294    313.94286   -1244.2521    318.17337   -786.91202   -468.73865   -551.50918   -75.106314     4857.403   -1669.8989    106.45942    155.04305    621.48445            0    882.98692   -6452.1956   -48.271156      16.5843      16.5843      16.5843            0            0            0   -1620.8026    229.57544   -646.78275    3601.3931   -7432.1399    97.990453 
  143000    4561.3294    291.41752   -2988.9556    295.34449   -781.03664   -485.69215   -684.52438   -88.240151    4870.5919   -1672.6266    123.58641      153.485    614.51855            0    891.58996   -6454.9783   -48.271156      16.5843      16.5843      16.5843            0            0            0    1820.1789   -998.31289    3431.3515   -4269.4921    2400.6866   -7098.0612 
  144000    4561.3294    308.31063    544.68092    312.46524   -779.14585   -466.68061   -430.44718   -73.741351    4865.9706   -1664.2543    106.25104    159.64637    619.21099            0     885.1084   -6456.4835   -48.271156      16.5843      16.5843      16.5843            0            0            0    797.32272    354.85427   -1361.7562    2042.2419    3039.7566   -3447.9557 
  145000    4561.3294     290.1229   -2469.3357    294.03243   -795.57792   -501.54549   -665.81141   -99.783352    4884.3466   -1668.3853    99.745554    149.01131    624.05051            0    872.80737   -6452.9486   -48.271156      16.5843      16.5843      16.5843            0            0            0    3517.9427    148.66726    1033.9061   -1502.3219   -1287.2798   -4618.4054 
  146000    4561.3294    280.53754    887.60021     284.3179   -769.02868   -484.71078   -425.66556   -78.331107    4887.5326   -1646.1839    105.76027    156.24257    615.15242            0    877.15526   -6455.3855   -48.271156      16.5843      16.5843      16.5843            0            0            0    2082.6301    1344.0338    964.00511    2226.0174    3576.4486   -3139.6653 
  147000    4561.3294    307.97623    -2440.007    312.12634   -762.59049   -450.46415   -612.77906   -74.045811    4877.0483   -1648.8077    94.602055    173.45226    618.16285            0    886.21717   -6451.8101   -48.271156      16.5843      16.5843      16.5843            0            0            0    2080.4889   -791.40576   -2531.7175   -2685.7951   -5191.2597    557.03378 
  148000    4561.3294    297.10038    10.118167    301.10393   -770.84245   -469.73851   -469.06543   -63.896836    4874.7527   -1645.0351    98.548894    163.58027    612.06352            0    874.19268    -6455.891   -48.271156      16.5843      16.5843      16.5843            0            0            0   -275.87173   -1546.2551   -1262.3436    258.68979    725.07258   -953.40787 
  149000    4561.3294    287.27927   -4208.4621    291.15048   -773.19013   -482.03966   -761.99628   -85.427114    4858.7881   -1677.5034    110.63106    168.79774     624.8845            0    904.31331   -6450.8644   -48.271156      16.5843      16.5843      16.5843            0            0            0    129.04069    4496.5986    -1797.433   -4279.4464   -4981.9687    -3363.971 
  150000    4561.3294    311.89476   -1245.8563    316.09767   -796.60988   -480.51221   -563.38945   -67.212444     4837.472   -1680.6375    104.71313    163.29795    616.01653            0    884.02761   -6450.8971   -48.271156      16.5843      16.5843      16.5843            0            0            0    51.228516    1896.9516   -1244.3404   -1004.3719    1560.9299    -4294.127 
  151000    4561.3294    285.67196    4149.3176    289.52151   -785.34594   -495.82443   -219.80223   -76.018175     4844.425   -1687.0268    87.835597    193.91688    619.92842            0     901.6809   -6455.4336   -48.271156      16.5843      16.5843      16.5843            0            0            0    1003.4094   -1009.2202    1648.7465   -1155.5421    5978.1552    7625.3398 
  152000    4561.3294    302.22648   -5322.3895    306.29911   -807.31303   -501.01392   -855.07156   -89.052068    4846.1848   -1695.4193    101.64426    162.96278    623.49922            0    888.10625    -6452.552   -48.271156      16.5843      16.5843      16.5843            0            0            0   -2997.3277    2732.0164    1917.5837   -5410.1817   -2822.3448   -7734.6419 
  153000    4561.3294    314.08896   -634.27576    318.32144   -729.24565   -410.92421    -453.1177   -61.810126    4879.5476   -1634.6031    112.40948    181.26212    611.68586            0    905.35746   -6452.3406   -48.271156      16.5843      16.5843      16.5843            0            0            0   -2000.8488    3564.3342    5843.3003   -741.34318   -4066.8232    2905.3391 
  154000    4561.3294    305.94417   -3588.3213    310.06689    -789.6439   -479.57701   -718.28043   -86.411276    4870.7478   -1666.1272     109.5488    146.59337    620.34117            0    876.48333   -6450.4638   -48.271156      16.5843      16.5843      16.5843            0            0            0    1777.7572   -2347.7367   -2496.1757   -5079.9864   -2270.0487   -3414.9289 
  155000    4561.3294    310.49074   -91.625556    314.67473    -802.4134   -487.73867   -493.83381   -95.565835     4895.431    -1656.938    102.59375    136.41236    615.51848            0    854.52459   -6456.8031   -48.271156      16.5843      16.5843      16.5843            0            0            0    831.96099   -5423.6124    -1197.507    103.67868    -3970.589    3592.0337 
  156000    4561.3294    287.55273    2518.5078    291.42762   -749.45617   -458.02855   -290.49159   -55.113412    4880.6154   -1628.3817    105.88796    152.62971    620.40783            0     878.9255   -6453.8837   -48.271156      16.5843      16.5843      16.5843            0            0            0   -2504.5067   -1114.4131    1316.1738    1039.2502    873.88482    5642.3883 
  157000    4561.3294    295.95365    704.41954    299.94175   -742.06647   -442.12472   -395.26511   -85.142381    4911.9759   -1623.9091    110.42876    148.60125    622.81267            0    881.84267   -6450.7426   -48.271156      16.5843      16.5843      16.5843            0            0            0    2112.9792    1872.2541   -1396.7424   -5415.3298    7384.3883    144.20005 
  158000    4561.3294    294.05684    2145.2544    298.01937   -777.66562   -479.64625   -336.93896    -72.66282    4884.9831   -1639.5624    92.419963    158.95388    610.52291            0    861.89675   -6451.8827   -48.271156      16.5843      16.5843      16.5843            0            0            0    4746.3074    274.91468    1161.6957    31.534774    6991.6414   -587.41282 
  159000    4561.3294    284.22681   -1059.5697    288.05688   -788.01541   -499.95853   -570.44355   -89.118845    4869.1728    -1671.015    98.452915    158.77994    625.76674            0     882.9996   -6451.0689   -48.271156      16.5843      16.5843      16.5843            0            0            0   -3051.6796   -754.08559    1083.3736    1513.3054   -6466.4999    1774.4854 
  160000    4561.3294    300.45686    2955.4102    304.50564   -756.69091   -452.18527   -255.58455   -68.557699    4880.5361   -1640.6922    100.03139    169.44412    614.52581            0    884.00132   -6452.6706   -48.271156      16.5843      16.5843      16.5843            0            0            0    -2124.521   -2567.8428   -6031.3781     2273.056     4575.207    2017.9677 
  161000    4561.3294       302.17   -2577.7547    306.24187   -800.28568   -494.04381   -665.52201   -85.466985    4857.5724   -1683.6966    95.973138    166.79712    620.64063            0    883.41089    -6455.802   -48.271156      16.5843      16.5843      16.5843            0            0            0   -1268.5498    1797.7931    1101.0631   -2720.5964   -3098.2266    -1914.441 
  162000    4561.3294    289.51977    471.67732    293.42117    -796.1141   -502.69294   -471.31587   -90.699541    4881.1731   -1668.3136    96.419544     157.7206    618.05939            0    872.19953   -6458.7872   -48.271156      16.5843      16.5843      16.5843            0            0            0   -647.80793   -3655.6691    1412.5653    8329.9532   -2418.2786   -4496.6427 
  163000    4561.3294    305.22307   -1724.8747    309.33608   -769.58262   -460.24654   -574.98919   -79.547004    4864.3031   -1669.8332    98.830501    178.19771    623.22237            0    900.25058   -6454.5893   -48.271156      16.5843      16.5843      16.5843            0            0            0    590.90886   -1541.7647    5007.7557   -2171.3534   -440.41994   -2562.8507 
  164000    4561.3294    296.20436   -1874.2134    300.19584   -763.64503   -463.44919    -588.1262   -80.198759    4875.3291   -1655.7371    113.71532    161.17527    617.20147            0    892.09207   -6450.8675   -48.271156      16.5843      16.5843      16.5843            0            0            0   -318.16925    284.27157     2010.515     2439.105   -4248.4129   -3813.3323 
  165000    4561.3294    287.86286    1225.3402    291.74193   -784.66397   -492.92204   -411.40958   -55.066238    4868.2653   -1641.3663    96.847549    145.03114    614.82368            0    856.70236   -6454.5654   -48.271156      16.5843      16.5843      16.5843            0            0            0   -2649.6029   -278.27195   -3121.4985   -1798.6085    1997.4941     3477.135 
  166000    4561.3294    296.55334    3338.0222    300.54952   -753.19587   -452.64635   -230.59339   -73.359397    4900.4592   -1627.5294    107.31911    152.98598    614.02843            0    874.33352   -6454.6292   -48.271156      16.5843      16.5843      16.5843            0            0            0    1460.1306   -3019.6054   -3506.8543    578.82181    8767.4314    667.81347 
  167000    4561.3294    297.59083    29.220232    301.60099   -795.00365   -493.40266   -491.45886   -69.359493     4851.257   -1669.4175    104.58795    151.68852    618.13738            0    874.41385    -6451.315   -48.271156      16.5843      16.5843      16.5843            0            0            0    440.16715   -1395.6131    1508.9161   -1405.6922    3155.9801   -1662.6272 
  168000    4561.3294    286.02304   -1482.7847    289.87731    -798.9328   -509.05548   -607.69374   -102.00004    4873.5564   -1680.1024     98.26152    158.84288    624.06517            0    881.16957   -6451.6587   -48.271156      16.5843      16.5843      16.5843            0            0            0    3837.8954    487.51081   -248.10082   -766.00632     850.8349   -4533.1826 
  169000    4561.3294    308.43704    2615.5502    312.59336   -784.24536     -471.652   -297.65956   -90.492241    4879.1699   -1664.6973    107.56334    149.88352     623.0051            0    880.45196    -6453.375   -48.271156      16.5843      16.5843      16.5843            0            0            0    2388.6916    5294.4723   -63.206408    6444.5518   -329.83109      1731.93 
  170000    4561.3294    319.73372    1491.5785    324.04227    -774.3177   -450.27543   -351.05218   -70.031794    4865.9179   -1656.2651    87.870213    175.25327    618.82392            0    881.94741   -6452.1512   -48.271156      16.5843      16.5843      16.5843            0            0            0   -40.286251    141.34346   -596.24788    3507.2936    3081.8603   -2114.4183 
  171000    4561.3294    303.72709   -1253.6441    307.81994   -806.48627   -498.66633   -582.06164   -57.672483    4836.9988   -1674.4475    102.99128    150.39626    614.57371            0    867.96124   -6453.7739   -48.271156      16.5843      16.5843      16.5843            0            0            0    423.69313    2569.5461    754.08768   -2499.8879   -1553.8793     292.8348 
  172000    4561.3294    298.65393    902.35104    302.67842   -771.94757   -469.26915   -409.24268   -69.006882    4884.6967   -1636.0084     94.88985    155.38513     613.7858            0    864.06078   -6451.6982   -48.271156      16.5843      16.5843      16.5843            0            0            0   -1209.3303   -119.41953   -171.03311   -409.00705   -3423.4191    6539.4793 
  173000    4561.3294    287.63077   -4944.9792    291.50671   -790.12802   -498.62131   -827.57275   -83.660981    4867.1286   -1669.6798    115.51354    155.24454    608.79368            0    879.55177   -6453.1474   -48.271156      16.5843      16.5843      16.5843            0            0            0    2864.1413     675.7251    1971.7692   -3430.5122   -5646.1494    -5758.276 
  174000    4561.3294    297.64758   -1721.9068    301.65851   -755.99256   -454.33405   -568.87927    -66.86677    4876.6069   -1647.9471    110.18846    172.76158    609.00445            0     891.9545   -6457.6872   -48.271156      16.5843      16.5843      16.5843            0            0            0    2887.8015   -1774.4672    115.89051   -2952.3557   -5067.7526    2854.3879 
  175000    4561.3294    311.68542   -2164.7725    315.88551   -783.60964   -467.72413    -611.7298   -67.138781    4867.0539     -1656.71    101.41195    158.56374    613.12465            0    873.10034   -6456.6251   -48.271156      16.5843      16.5843      16.5843            0            0            0    1110.1679   -2666.2416   -135.97322    -1767.533   -6997.3899    2270.6055 
  176000    4561.3294    299.98635    7219.2493    304.02879   -787.76256   -483.73377   -3.4926295   -67.053964    4859.5059   -1664.1006    91.826991    163.52057    620.99047            0    876.33803   -6456.5525   -48.271156      16.5843      16.5843      16.5843            0            0            0   -886.02441    171.81635   -1368.6377    6376.8147    8407.7121    6873.2211 
  177000    4561.3294    311.97193    -224.4347    316.17588   -784.65612   -468.48023   -483.41015   -64.789292    4846.1404   -1671.0998    110.36762    161.04012     615.0359            0    886.44364   -6452.4509   -48.271156      16.5843      16.5843      16.5843            0            0            0    1269.4106    3651.4171    2227.3953   -408.67018    4364.4822   -4629.1161 
  178000    4561.3294    272.90906   -3698.2881    276.58662   -782.41809   -505.83147   -751.85014   -53.615836    4825.0799   -1681.1978    116.54119    161.83747    620.40102            0    898.77967   -6452.6618   -48.271156      16.5843      16.5843      16.5843            0            0            0   -1401.7281   -1192.8017   -574.20531   -6815.7598   -4886.1416    607.03694 
  179000    4561.3294    318.43329    2053.2969    322.72432   -794.87997   -472.15566   -335.56561   -52.348912    4820.7893   -1686.4224    98.823576    174.61065    618.10825            0    891.54248   -6454.8629   -48.271156      16.5843      16.5843      16.5843            0            0            0    3789.6547    713.25283     1296.015    6057.3733     1866.062   -1763.5446 
  180000    4561.3294    305.83762    3082.8371     309.9589   -833.11438   -523.15548   -318.07803    -54.53134    4830.1781   -1674.7159    89.258758    131.36841     620.9743            0    841.60148   -6450.3626   -48.271156      16.5843      16.5843      16.5843            0            0            0    1241.9449    3598.2889    895.36414    5526.1664   -1097.9062    4820.2511 
  181000    4561.3294    303.61925    3240.6051    307.71064   -772.14539   -464.43475   -248.86221   -59.961278    4858.6549    -1655.405    96.281174    173.58428    613.39417            0    883.25962   -6454.0987   -48.271156      16.5843      16.5843      16.5843            0            0            0    2321.9653    587.69783    265.27401    3086.0512    5075.5411    1560.2228 
  182000    4561.3294    286.33731    396.85856    290.19582   -788.66618   -498.47035   -472.07041   -48.247025    4825.3864   -1670.2166    95.720859     165.0928     620.7368            0    881.55046    -6447.356   -48.271156      16.5843      16.5843      16.5843            0            0            0    1962.9012   -205.02415    930.84757   -6696.6766    3565.5251    4321.7273 
  183000    4561.3294    296.87813    2927.2445    300.87869   -783.73978   -482.86109   -288.13403   -42.463512    4838.2425   -1655.7902    98.406119    156.61995    617.02432            0    872.05039   -6451.5692   -48.271156      16.5843      16.5843      16.5843            0            0            0    1810.5807    2435.3504   -331.19654    2115.8692    1635.6455    5030.2187 
  184000    4561.3294    312.69877   -519.45251    316.91251   -780.94752   -464.03501   -498.59019   -41.917192    4842.6211     -1651.43    97.288485    156.38771    616.80628            0    870.48247   -6452.1339   -48.271156      16.5843      16.5843      16.5843            0            0            0    2072.1909   -2171.2322    4891.7436   -2420.7676    380.45633    481.95369 
  185000    4561.3294    299.40642     499.5894    303.44104   -786.56865    -483.1276   -449.89376   -57.275244    4856.2829   -1653.0345     91.05542    153.28615    622.12428            0    866.46584   -6452.0421   -48.271156      16.5843      16.5843      16.5843            0            0            0    660.49359    2691.7695    2148.2803    -465.7122   -3126.7535    5091.2339 
  186000    4561.3294    286.90022   -2449.3283    290.76632   -757.22601   -466.45968   -629.39466    -76.69506    4870.5227   -1657.5508    118.19213    162.10641    620.02629            0    900.32483   -6451.3785   -48.271156      16.5843      16.5843      16.5843            0            0            0   -1988.8839    -1605.728    3058.1105   -3667.2428   -5271.3315    1590.5894 
  187000    4561.3294    312.93839    2877.7583    317.15536   -759.65069   -442.49533    -251.0602   -52.260602    4849.5329    -1657.248    103.54175     177.1061    616.94942            0    897.59727   -6454.5203   -48.271156      16.5843      16.5843      16.5843            0            0            0   -1171.1707   -2602.3611    794.58723    1502.0095    1038.9886    6092.2768 
  188000    4561.3294    277.07477   -1727.4335    280.80847   -789.29884   -508.49037   -623.40324   -65.416134    4856.8101   -1661.4141    99.734452    156.27145    616.10937            0    872.11527   -6452.8081   -48.271156      16.5843      16.5843      16.5843            0            0            0    -1866.721   -2831.7951    2222.8188   -1711.2345    308.31405   -3779.3801 
  189000    4561.3294    291.81139   -1067.3265    295.74367   -784.04374   -488.30006   -559.30109   -68.590966    4835.6545   -1686.9977    114.17788    165.68602    623.09008            0    902.95398   -6454.0612   -48.271156      16.5843      16.5843      16.5843            0            0            0   -2392.4938    316.49154   -2858.9866   -4551.8429    705.68997    644.17338 
  190000    4561.3294    300.84895    3971.2165    304.90301   -771.20864   -466.30563   -202.13113   -82.506531    4890.9961   -1641.4021    94.759235     154.6128    620.82142            0    870.19345   -6449.8916   -48.271156      16.5843      16.5843      16.5843            0            0            0    4171.6759   -175.94196    2458.8757    6135.5697    5103.0559    675.02398 
  191000    4561.3294    287.94369    4558.9686    291.82385   -775.87306   -484.04921   -180.77609   -52.388778    4863.5161   -1639.9933    97.794551    151.38894    614.93672            0     864.1202   -6451.1206   -48.271156      16.5843      16.5843      16.5843            0            0            0   -4583.0171   -237.12556   -509.57786    4110.7421    4458.8643    5107.2994 
  192000    4561.3294    286.27097   -3243.2802    290.12859   -792.43493   -502.30634   -718.05683   -84.294253     4885.932    -1647.155    88.163022    150.64691    615.91011            0    854.72004   -6448.7927   -48.271156      16.5843      16.5843      16.5843            0            0            0   -1003.8058    1599.6498   -2236.8359   -798.11352   -4369.8081    -4561.919 
  193000    4561.3294    326.43628    4487.9307    330.83514   -778.48815     -447.653   -149.10548   -85.283416    4876.9626   -1657.9473    93.230453    169.48508    616.74366            0     879.4592   -6449.6265   -48.271156      16.5843      16.5843      16.5843            0            0            0   -1023.2979    3139.5841   -557.34962    5122.5066    1848.6355    6492.6501 
  194000    4561.3294    300.78878   -3391.4761    304.84203    -797.8618   -493.01977    -718.6286   -69.335598    4857.3046   -1662.9448    92.624468    152.15176    620.30678            0    865.08301   -6450.9138   -48.271156      16.5843      16.5843      16.5843            0            0            0    -1880.071   -1149.4868    1911.6298   -6053.9223   -1564.7528   -2555.7533 
  195000    4561.3294    293.37649    3223.5496    297.32986   -781.48558   -484.15571   -269.71774   -71.381102    4856.9411   -1667.8923    91.512067     171.3058    623.58881            0    886.40668   -6453.4523   -48.271156      16.5843      16.5843      16.5843            0            0            0   -3439.5205   -992.08551    2274.0404    616.99834    3922.2551    5131.3955 
  196000    4561.3294     279.6092   -3440.8204    283.37705   -781.12364   -497.74659   -726.63791   -63.200324     4863.752   -1652.6346    112.29226    140.76975    618.44891            0    871.51092   -6453.1862   -48.271156      16.5843      16.5843      16.5843            0            0            0    3776.0853   -3941.6923    2807.5567   -541.70424   -2342.5095   -7438.2474 
  197000    4561.3294    311.62868     2072.813    315.82801    -743.6797   -427.85169   -289.96338    -59.27515     4872.154   -1638.1373    101.96646     167.3553     625.1358            0    894.45757   -6451.0161   -48.271156      16.5843      16.5843      16.5843            0            0            0   -176.75472     3057.245    22.724772    64.407236    3556.8065    2597.2253 
[...]
 9955000    4561.3294    304.76753    42.492078     308.8744   -762.61046   -453.73606   -450.90938   -87.842332    4895.2357   -1644.7868    92.506597    171.26773    618.40204            0    882.17637   -6452.1802   -48.271156      16.5843      16.5843      16.5843            0            0            0    3527.3911   -3203.2367    834.38475    6080.1955   -3641.8029   -2310.9164 
 9956000    4561.3294    292.57375    1412.5313     296.5163   -752.01314   -455.49684   -361.53199   -62.420891    4887.6515   -1624.1475    94.460438     156.0399    621.63399            0    872.13432    -6449.378   -48.271156      16.5843      16.5843      16.5843            0            0            0   -1406.3414   -254.79574    1342.4253     2317.038     4171.628   -2251.0722 
 9957000    4561.3294    302.76496   -1400.2208    306.84485   -748.84444    -441.9996   -535.14552   -82.826512    4896.7851   -1639.4703    101.17483    166.34414    623.10684            0    890.62581   -6453.4288   -48.271156      16.5843      16.5843      16.5843            0            0            0    4679.7369   -429.52774   -2558.0919    3743.4497   -2179.2086   -5764.9036 
 9958000    4561.3294     288.4323    2439.5427    292.31905   -785.79506   -493.47601   -331.19199   -75.968254    4868.6112   -1661.4995    83.798525    172.38455    619.52133            0    875.70441   -6454.1424   -48.271156      16.5843      16.5843      16.5843            0            0            0     228.7673    2936.5736    661.86821     2197.921    1280.6103    3840.0968 
 9959000    4561.3294    273.57913    3681.5828    277.26572   -744.95659   -467.69087   -222.78347   -48.280347    4862.6233   -1639.2322    100.75402    168.99325    624.52831            0    894.27558   -6453.5752   -48.271156      16.5843      16.5843      16.5843            0            0            0   -1121.9617   -2315.8093    3990.1396    2710.3839    6057.3636    2277.0008 
 9960000    4561.3294    306.51156   -102.02488    310.64193   -801.26915   -490.62722   -497.41415   -82.549049      4880.61   -1658.1156    79.722933    154.50979    622.61368            0     856.8464   -6456.1765   -48.271156      16.5843      16.5843      16.5843            0            0            0    949.64138   -1600.1438   -1136.7827   -3177.0623    1501.8475    1369.1401 
 9961000    4561.3294     303.2035    4667.2162    307.28929   -759.07904   -451.78975   -141.31575   -60.274762    4878.7741   -1638.5335    98.294993      160.648    620.51147            0    879.45446   -6457.0328   -48.271156      16.5843      16.5843      16.5843            0            0            0    167.18557   -1053.2591    2301.1551    10026.067    4264.0635   -288.48159 
 9962000    4561.3294    305.26593   -1366.0836    309.37951   -737.46648   -428.08697   -518.96201   -85.540484    4894.0433   -1642.8785    106.01296    175.58561    623.81348            0    905.41205   -6451.3814   -48.271156      16.5843      16.5843      16.5843            0            0            0   -1802.6734   -2003.7972    272.76458    187.25453   -1549.1969   -2736.3086 
 9963000    4561.3294    286.65955   -2907.9941    290.52241   -752.61805   -462.09564   -655.54213   -67.215141    4888.7374   -1632.0421    101.87723    160.44076    617.10607            0    879.42406   -6453.5644   -48.271156      16.5843      16.5843      16.5843            0            0            0    -293.1729   -1054.6391     956.1816   -5177.4099   -2460.1319   -1086.4404 
 9964000    4561.3294    296.57918    4124.2368    300.57571   -758.93459   -458.35887   -184.00511   -59.816723    4880.8361   -1631.1921     95.71803    167.13759    609.40194            0    872.25756   -6452.2116   -48.271156      16.5843      16.5843      16.5843            0            0            0   -310.17228   -291.94375    1367.4371   -627.18563    6415.5644    6584.3316 
 9965000    4561.3294    298.61353    1342.3401    302.63747   -750.03535   -447.39787   -358.10231   -60.038251    4875.5001   -1634.6767    113.50324    140.01553    631.12256            0    884.64133   -6450.1385   -48.271156      16.5843      16.5843      16.5843            0            0            0   -1294.7571    10.419158    3835.8543   -660.38587   -1903.6716    6591.0777 
 9966000    4561.3294    267.32796    5999.9277    270.93031   -772.26208   -501.33177   -102.20271   -69.089197    4870.5845   -1646.7946    89.815055    159.31473    625.40277            0    874.53255   -6448.2899   -48.271156      16.5843      16.5843      16.5843            0            0            0   -751.03692   -442.11258      196.632    7034.3269    4532.1801     6433.276 
 9967000    4561.3294    305.60289    1348.9974    309.72102    -763.8967   -454.17568   -364.43725   -71.888362    4875.1516   -1650.5681    104.82988     160.3562    621.48532            0    886.67141   -6453.8314   -48.271156      16.5843      16.5843      16.5843            0            0            0   -2813.1999    938.89736    2214.1555   -1888.5763    535.99976    5399.5687 
 9968000    4561.3294    294.81074    1985.3159    298.78344   -774.18331   -475.39987   -343.33207   -73.483073    4877.6918   -1648.0093    98.248769    161.80683     613.7704            0    873.82601    -6452.218   -48.271156      16.5843      16.5843      16.5843            0            0            0   -3208.0682   -1189.9871    1697.2662    6359.3439    4102.6568    -4506.053 
 9969000    4561.3294    308.62914    862.83927    312.78804   -772.81258   -460.02453   -402.62647    -77.03326    4865.2354   -1661.4394    104.57321     164.6361    619.41749            0     888.6268   -6449.6415   -48.271156      16.5843      16.5843      16.5843            0            0            0   -1543.5736    5723.0875    4732.6296    2998.4538   -2283.0182    1873.0822 
 9970000    4561.3294    289.58198   -265.09535    293.48422   -778.60586   -485.12164    -502.7564   -72.912279    4862.9027    -1658.616    90.935484    169.72887    619.34582            0    880.01017   -6448.6064   -48.271156      16.5843      16.5843      16.5843            0            0            0   -3086.8192    361.01204   -1531.1032   -954.83502   -471.73517    631.28415 
 9971000    4561.3294    294.44046    3796.2379    298.40817   -773.12616   -474.71798   -222.18347   -86.324029    4880.3757   -1656.8887    90.472826    172.85246     620.4373            0    883.76259   -6450.9404   -48.271156      16.5843      16.5843      16.5843            0            0            0    4459.1519    615.15941    2850.5205    3267.9793    3285.5083    4835.2263 
 9972000    4561.3294     283.0856    -2020.212    286.90029   -783.77586   -496.87556   -631.26474   -77.216403    4857.5274   -1673.0093    93.859141    177.60308    617.77124            0    889.23346   -6453.3204   -48.271156      16.5843      16.5843      16.5843            0            0            0   -1553.5711    1503.0906   -1485.7382   -5171.9818   -3277.0282     2388.374 
 9973000    4561.3294    308.92736   -2592.4902    313.09028   -756.15827   -443.06799   -615.52642   -64.174726    4864.7373   -1651.1355    104.09233    170.84516    620.03976            0    894.97725   -6451.6981   -48.271156      16.5843      16.5843      16.5843            0            0            0    2765.8916   -3221.6232    2799.0201   -4171.9524    -470.3545   -3135.1637 
 9974000    4561.3294    295.08103    2464.6885    299.05737   -747.15869   -448.10132   -284.14455   -74.363136    4886.3832   -1642.3127    90.564364    181.27908    623.31058            0    895.15403   -6454.3328   -48.271156      16.5843      16.5843      16.5843            0            0            0      233.486   -920.17579   -51.587071   -1411.3803     7167.698    1637.7477 
 9975000    4561.3294    288.38839   -738.71087    292.27455   -765.00583   -472.73128   -521.87204   -72.529173    4872.8099   -1650.6079    89.956692     164.0179    631.62742            0    885.60202   -6450.8886   -48.271156      16.5843      16.5843      16.5843            0            0            0    1710.7832     3436.866    678.50336   -3048.0274     574.4794     257.4154 
 9976000    4561.3294    302.85711    15.593623    306.93823   -732.99648   -426.05825   -425.02093   -54.206471    4884.4437   -1618.2821    111.74843      157.586    615.95124            0    885.28566   -6448.5194   -48.271156      16.5843      16.5843      16.5843            0            0            0    2177.5156    345.63747   -3664.9787    672.46598   -1135.9843    510.29921 
 9977000    4561.3294    291.03966   -294.50892    294.96154   -742.18855   -447.22701   -466.81843   -83.432758    4878.8756   -1654.3763    107.82995    181.85971    622.49805            0    912.18772   -6449.8191   -48.271156      16.5843      16.5843      16.5843            0            0            0   -124.50815   -539.58457     481.1677    1944.4413    1479.0465   -4307.0145 
 9978000    4561.3294      306.382    1638.0343    310.51062   -733.59812   -423.08749   -314.12167   -88.669709    4911.5288    -1628.769    107.94435    166.24635    620.98016            0    895.17086   -6451.6281   -48.271156      16.5843      16.5843      16.5843            0            0            0   -1255.5353    1848.0454     2999.983    1596.2844    2728.5215    589.29696 
 9979000    4561.3294    294.57138   -3327.6355    298.54085   -792.69115    -494.1503    -715.5123   -90.487048    4873.6958   -1668.3075    91.244304    160.60147    623.77059            0    875.61637   -6451.5163   -48.271156      16.5843      16.5843      16.5843            0            0            0    943.99989    3154.6743    1110.9121   -5111.2471   -4217.6559   -654.00341 
 9980000    4561.3294    295.46708    799.88996    299.44862   -758.34421   -458.89559   -405.68507   -85.222836    4902.1766   -1633.9039    79.725148    173.50777    622.32681            0    875.55973   -6450.8577   -48.271156      16.5843      16.5843      16.5843            0            0            0   -2116.5294   -639.61548   -1215.7562    4571.2715    1263.7582   -3435.3598 
 9981000    4561.3294    299.99135    59.106413    304.03386   -772.92731   -468.89346   -464.96156   -73.831153    4851.8191   -1673.1581     104.9935    172.25992    622.97738            0     900.2308   -6451.1461   -48.271156      16.5843      16.5843      16.5843            0            0            0   -3219.2615    1560.4174    -1936.234   -1627.4956   -788.59898    2593.4139 
 9982000    4561.3294    282.74566    3506.8815    286.55577   -782.06874   -495.51296    -262.2271   -67.373973    4850.1112   -1670.5568     95.19985    175.46035    617.82789            0    888.48809   -6453.2941   -48.271156      16.5843      16.5843      16.5843            0            0            0   -126.48708   -477.58997   -786.10643   -122.76937    3558.7775    7084.6364 
 9983000    4561.3294    318.80397   -4744.9852    323.09998   -770.06788   -446.96789   -762.61527   -84.850688     4891.675   -1647.7444    95.846642    160.29641    621.53342            0    877.67648   -6454.5686   -48.271156      16.5843      16.5843      16.5843            0            0            0    2143.6452   -3318.1816   -1823.1727   -4450.4534   -4798.8601    -4985.642 
 9984000    4561.3294    282.22839    2059.6688    286.03154   -745.44349   -459.41195   -322.39803   -92.327781    4914.5089   -1628.9177    106.36784     162.9993    614.10703            0    883.47416   -6451.0988   -48.271156      16.5843      16.5843      16.5843            0            0            0    1663.9484    359.04815    261.79602    1698.3936   -648.37717    5128.9899 
 9985000    4561.3294    300.93312   -1661.8089    304.98832   -768.77503   -463.78671   -574.33408   -64.584552     4867.247   -1648.6323    99.659382    155.74155    624.45632            0    879.85725   -6451.2948   -48.271156      16.5843      16.5843      16.5843            0            0            0    3074.2505    701.12437    675.50911   -1828.7403   -2478.4319   -678.25457 
 9986000    4561.3294    301.06845   -2719.5269    305.12547   -756.64826   -451.52279     -632.432   -83.259409     4884.758   -1650.9469    102.23676    173.05548    619.00636            0     894.2986   -6452.4454   -48.271156      16.5843      16.5843      16.5843            0            0            0   -1405.7462   -311.76662    1260.2308   -552.68722   -1815.2021   -5790.6913 
 9987000    4561.3294    282.54449    3101.2599    286.35189    -762.9441   -476.59221   -270.28924   -105.51328    4925.5157   -1632.7946    86.969053    160.88581    621.99561            0    869.85047    -6452.797   -48.271156      16.5843      16.5843      16.5843            0            0            0    5686.6353   -995.16361    2238.3301    1554.3476    4492.7117    3256.7204 
 9988000    4561.3294    305.06727    -736.3138    309.17818   -775.95111   -466.77292   -515.75422    -92.73664    4875.2132   -1669.2648    96.150432    177.15025    620.01298            0    893.31366   -6451.7413   -48.271156      16.5843      16.5843      16.5843            0            0            0   -1148.5954   -1361.0662   -2726.5394   -1952.0938    2623.5468   -2880.3943 
 9989000    4561.3294    297.31146   -821.38045    301.31785   -773.82375   -472.50589   -527.14602   -90.753272    4888.2387   -1658.2272    98.882517    165.15928    620.36166            0    884.40346   -6455.7126   -48.271156      16.5843      16.5843      16.5843            0            0            0    3147.8388    650.67018    487.55319   -106.89541   -2949.3105    592.06457 
 9990000    4561.3294    298.26393    839.06249    302.28316   -776.91856    -474.6354   -418.81902   -77.052066    4872.9171   -1658.3783    94.001303    162.60234    624.85607            0    881.45972   -6454.2433   -48.271156      16.5843      16.5843      16.5843            0            0            0    -3900.645   -1707.1488    24.108972   -2841.3741    2034.0509    3324.5107 
 9991000    4561.3294    317.02544    507.36795    321.29749   -775.49637   -454.19888   -420.44759   -80.005841    4876.0201   -1658.8379    91.928618    172.52933    618.88358            0    883.34152   -6454.8522   -48.271156      16.5843      16.5843      16.5843            0            0            0   -667.09761   -137.64711   -1179.9692      223.029    544.05991    755.01496 
 9992000    4561.3294    314.33741   -3653.2688    318.57324   -761.48149   -442.90825   -685.93214   -105.86713    4900.5329   -1659.0619    108.85647    166.10898    622.61496            0    897.58042   -6453.7277   -48.271156      16.5843      16.5843      16.5843            0            0            0   -1707.9653    1601.2278    1228.6618   -9198.7933   -1362.2183   -398.79479 
 9993000    4561.3294    302.42582   -3071.6285    306.50113   -756.28848   -449.78734   -654.11917   -87.558414    4902.2824   -1641.7509      113.784    142.50251    629.17593            0    885.46244   -6456.4749   -48.271156      16.5843      16.5843      16.5843            0            0            0    2392.1113    629.05845   -3116.9452    -287.3219   -6904.1172   -2023.4464 
 9994000    4561.3294    262.01337    1099.2652    265.54411   -765.98202   -500.43791   -427.31225   -77.746029    4895.2117   -1636.4012    93.999277    159.16486    617.25501            0    870.41914   -6453.8668   -48.271156      16.5843      16.5843      16.5843            0            0            0   -5969.2381   -5282.0278    2110.0952   -884.68694     2849.297    1333.1854 
 9995000    4561.3294    305.39662   -2348.1431    309.51197   -749.14883   -439.63686   -595.84077    -96.06121    4886.3488   -1664.4181    108.56589    178.26944    628.43392            0    915.26925   -6454.7056   -48.271156      16.5843      16.5843      16.5843            0            0            0    1112.9743    2122.8589    2621.2031   -306.19388   -1795.0541   -4943.1813 
 9996000    4561.3294    287.88655    2340.9206    291.76594   -773.20118   -481.43524    -325.7118   -99.918154    4889.5442   -1661.6773    89.376593    172.71492    626.38466            0    888.47617   -6451.3034   -48.271156      16.5843      16.5843      16.5843            0            0            0   -265.27303     -988.345   -2437.2211    3620.5018     2611.347    790.91294 
 9997000    4561.3294    288.39979   -3196.2966    292.28609   -745.67108   -453.38499   -666.01002   -101.75503    4925.5181   -1630.4662    92.354696    161.87922    630.56124            0    884.79515   -6454.2293   -48.271156      16.5843      16.5843      16.5843            0            0            0   -30.236579   -906.04099    3018.5556   -5213.1978   -2721.3376   -1654.3545 
 9998000    4561.3294    288.54026   -3100.7863    292.42846    -756.7818   -464.35333    -670.6248   -56.683017    4851.1899    -1655.575    103.51419    172.53607    622.74292            0    898.79319   -6450.0819   -48.271156      16.5843      16.5843      16.5843            0            0            0    -2517.203    344.29205    2682.4515   -1605.1865   -2187.0403    -5510.132 
 9999000    4561.3294    298.90101   -333.26398    302.92883   -727.64478   -424.71596   -446.88545   -81.674083    4883.0652   -1652.5364    121.52097    180.35678    623.01389            0    924.89164   -6453.9275   -48.271156      16.5843      16.5843      16.5843            0            0            0    -698.4558   -1457.9254   -134.50106   -2626.9905   -544.76751    2171.9661 
10000000    4561.3294    314.63185    3294.0847    318.87164   -776.58004   -457.70839   -238.57827   -86.769051    4888.4843   -1651.5689    87.451028    167.71171    619.82613            0    874.98887   -6453.2842   -48.271156      16.5843      16.5843      16.5843            0            0            0    351.66195    466.67938     693.2137    5196.8391    2069.7204    2615.6946 
Loop time of 6006.54 on 4 procs for 10000000 steps with 341 atoms

Performance: 143.843 ns/day, 0.167 hours/ns, 1664.851 timesteps/s
92.1% CPU use with 4 MPI tasks x 1 OpenMP threads

MPI task timing breakdown:
Section |  min time  |  avg time  |  max time  |%varavg| %total
---------------------------------------------------------------
Pair    | 1622.5     | 1735.3     | 1884.8     | 227.1 | 28.89
Bond    | 163.48     | 188.77     | 212.34     | 126.1 |  3.14
Kspace  | 2756.1     | 2910       | 2992.6     | 176.1 | 48.45
Neigh   | 172.14     | 172.18     | 172.23     |   0.3 |  2.87
Comm    | 822.24     | 853.06     | 867.05     |  62.2 | 14.20
Output  | 3.8553     | 3.9204     | 4.1132     |   5.6 |  0.07
Modify  | 49.55      | 52.096     | 54.687     |  29.8 |  0.87
Other   |            | 91.27      |            |       |  1.52

Nlocal:    85.25 ave 91 max 78 min
Histogram: 1 0 0 1 0 0 0 0 1 1
Nghost:    1697 ave 1724 max 1686 min
Histogram: 2 1 0 0 0 0 0 0 0 1
Neighs:    9681 ave 11012 max 8809 min
Histogram: 1 0 1 1 0 0 0 0 0 1

Total # of neighbors = 38724
Ave neighs/atom = 113.56
Ave special neighs/atom = 5.85924
Neighbor list builds = 334303
Dangerous builds = 0


write_restart   restart.${NAME}
write_restart   restart.mol
PPPM initialization ...
  using 12-bit tables for long-range coulomb (src/kspace.cpp:332)
  G vector (1/distance) = 0.374366
  grid = 12 12 12
  stencil order = 5
  estimated absolute RMS force accuracy = 0.0274815
  estimated relative force accuracy = 8.27598e-05
  using double precision KISS FFT
  3d grid and FFT values/proc = 3211 432
write_data	data.*
PPPM initialization ...
  using 12-bit tables for long-range coulomb (src/kspace.cpp:332)
  G vector (1/distance) = 0.374366
  grid = 12 12 12
  stencil order = 5
  estimated absolute RMS force accuracy = 0.0274815
  estimated relative force accuracy = 8.27598e-05
  using double precision KISS FFT
  3d grid and FFT values/proc = 3211 432
Total wall time: 1:40:07
