LAMMPS data file via write_data, version 3 Mar 2020, timestep = 10000000

294 atoms
8 atom types
226 bonds
5 bond types
275 angles
8 angle types
270 dihedrals
6 dihedral types

0.0000000000000000e+00 1.5436100000000000e+01 xlo xhi
0.0000000000000000e+00 1.5394000000000000e+01 ylo yhi
0.0000000000000000e+00 1.5438000000000001e+01 zlo zhi

Masses

1 6.941
2 16
3 19
4 12.01
5 32.06
6 14.01
7 16
8 1.008

Pair Coeffs # lj/cut/coul/long

1 0.0182661 2.126
2 0.209859 2.96
3 0.0609584 3.118
4 0.109326 3.4
5 0.249833 3.564
6 0.169886 3.25
7 0.155323 3.165
8 0 0

Bond Coeffs # harmonic

1 492.67 1.466
2 363.556 1.344
3 248.733 1.782
4 256.929 1.752
5 529.23 1.012

Angle Coeffs # harmonic

1 41.2526 108.48
2 45.27 121.88
3 43.0716 107.06
4 81.1647 109.67
5 71.2115 107.16
6 39.3938 103.12
7 109.646 119.18
8 37.9249 113.24

Dihedral Coeffs # charmm

1 0.143897 3 0 0
2 0.143897 3 0 0
3 0.499666 3 180 0
4 6.79545 1 180 0
5 0.499666 3 180 0
6 6.79545 1 180 0

Atoms # full

139 18 5 9.1100000000000003e-01 3.3471864037527550e+00 4.2214497519337639e+00 4.8151937512629912e+00 0 0 0
137 18 2 -4.6100000000000002e-01 1.9648629389954366e+00 3.8259862802976317e+00 5.1667742701501576e+00 0 0 0
140 18 2 -4.6100000000000002e-01 4.0292821933460878e+00 3.4477553274077541e+00 3.7847464813144640e+00 0 0 0
148 20 7 -8.1999999999999995e-01 3.4953801223789740e+00 8.9287205791929547e-01 3.0864862549196559e+00 2 3 0
150 20 8 4.0999999999999998e-01 3.6436491376240152e+00 1.8453567275281442e+00 3.1060509828425973e+00 2 3 0
143 18 4 3.1900000000000001e-01 4.2618300864108276e+00 4.0268715615752741e+00 6.3121367231380372e+00 0 0 0
149 20 8 4.0999999999999998e-01 2.8086436369274321e+00 7.4311878069313020e-01 2.3641811292239203e+00 2 3 0
144 18 3 -1.3800000000000001e-01 5.6237673155683012e+00 4.2396853420055756e+00 6.2411907955229120e+00 0 0 0
96 15 3 -1.3800000000000001e-01 2.2589428433164178e+00 3.7134480994262917e+00 1.0369728322724450e+00 1 0 1
272 61 8 4.0999999999999998e-01 7.1035030240696484e+00 3.5494895765295333e+00 3.3275434362456298e+00 0 -1 -2
226 46 7 -8.1999999999999995e-01 5.2820170025379953e+00 6.8784242471380333e-02 5.0018022188533973e+00 -1 -1 -2
206 39 8 4.0999999999999998e-01 6.2425086386177364e-01 3.3361831843392431e-01 1.1369212081079421e+00 -1 4 -2
142 18 3 -1.3800000000000001e-01 3.7837905725026837e+00 4.7617239985481472e+00 7.3478012500125196e+00 0 0 0
141 18 3 -1.3800000000000001e-01 4.1152673058187874e+00 2.7267920391852773e+00 6.6906699441938278e+00 0 0 0
3 3 1 8.0000000000000004e-01 6.9345950017994893e+00 1.1340976110249847e+00 4.9353637039250868e+00 0 0 -2
228 46 8 4.0999999999999998e-01 4.3342409549311300e+00 2.8661001299821831e-01 4.6881997128112429e+00 -1 -1 -2
80 14 2 -4.6100000000000002e-01 6.0294953108239628e+00 3.5382104986681053e+00 1.0895457340562502e+00 -1 -1 0
79 14 5 9.1100000000000003e-01 6.7616569999062834e+00 4.6766369028521684e+00 4.5440861899384261e-01 -1 -1 0
243 51 8 4.0999999999999998e-01 8.1037218272581835e-01 1.0491534170781833e+00 6.6943127931660404e+00 2 0 0
271 61 7 -8.1999999999999995e-01 7.7148114346964931e+00 2.7944417928412615e+00 3.7199376238119912e+00 0 -1 -2
241 51 7 -8.1999999999999995e-01 5.7139808826321159e-01 1.9341932408008562e+00 7.1847950615412062e+00 2 0 0
163 25 7 -8.1999999999999995e-01 7.5244951654693741e+00 1.5156194658816897e+00 6.9137257204147806e+00 -1 0 0
242 51 8 4.0999999999999998e-01 9.4692729801530118e-01 2.6788629754318607e+00 6.5739166777774223e+00 2 0 0
164 25 8 4.0999999999999998e-01 7.6788278057272779e+00 5.1940550403970165e-01 7.0037054580464764e+00 -1 0 0
136 18 6 -5.8799999999999997e-01 3.1748541924917473e+00 5.8654978760723004e+00 4.2000016226957033e+00 0 0 0
81 14 3 -1.3800000000000001e-01 4.7559015444213548e+00 6.4273549674570178e+00 6.9641902667745448e-01 -1 -1 0
184 32 7 -8.1999999999999995e-01 9.1664905733461488e-01 9.8128389702362284e+00 2.9170163762531476e+00 1 0 0
171 27 8 4.0999999999999998e-01 5.1484141011680085e-01 6.0586346446382038e+00 2.5527293381832279e+00 -3 0 -1
130 18 2 -4.6100000000000002e-01 4.8991062235448748e+00 6.8776745295633273e+00 6.0550734066927081e+00 0 0 0
133 18 5 9.1100000000000003e-01 3.6937787757022535e+00 7.2435904656659265e+00 5.2344837708542551e+00 0 0 0
135 18 3 -1.3800000000000001e-01 1.5150443344226596e+00 8.5184283366288138e+00 5.7236089131447780e+00 0 0 0
132 18 4 3.1900000000000001e-01 2.4633623879993598e+00 7.8816735575288996e+00 6.3998059310631588e+00 0 0 0
134 18 2 -4.6100000000000002e-01 3.8599498743055558e+00 8.2368471455202208e+00 4.1433001724938476e+00 0 0 0
138 18 3 -1.3800000000000001e-01 2.9981257490326563e+00 8.7067356885860026e+00 7.3118201692318969e+00 0 0 0
131 18 3 -1.3800000000000001e-01 1.8720918320883293e+00 6.8890665006662521e+00 7.0787913516878103e+00 0 0 0
169 27 7 -8.1999999999999995e-01 1.2585831706844028e+00 6.7384353461105979e+00 2.3979741471552685e+00 -3 0 -1
170 27 8 4.0999999999999998e-01 2.1391321245271069e+00 6.4404916048133014e+00 2.8290049569347504e+00 -3 0 -1
186 32 8 4.0999999999999998e-01 9.2206637925330082e-01 8.7771868684679824e+00 2.6990218548967073e+00 1 0 0
188 33 8 4.0999999999999998e-01 6.6344790315963547e+00 5.7888713232465552e+00 6.5038197604723891e+00 -2 3 -1
221 44 8 4.0999999999999998e-01 2.5077259682389608e+00 1.0133173721411156e+01 2.7242203996814465e+00 0 3 -1
75 14 3 -1.3800000000000001e-01 7.2115138765554043e+00 8.3408087752382620e+00 2.3429993522184196e+00 -1 -1 0
249 53 8 4.0999999999999998e-01 6.1693585339847692e+00 1.0209927579656663e+01 2.9127134914854498e+00 -1 1 0
187 33 7 -8.1999999999999995e-01 7.6181063119286181e+00 6.1105956800648986e+00 6.7179484148869824e+00 -2 3 -1
192 34 8 4.0999999999999998e-01 5.5222442013599569e+00 1.0230544461010854e+01 5.3915042367385810e+00 0 0 -4
190 34 7 -8.1999999999999995e-01 5.3015971775611943e+00 1.0068511490434412e+01 6.3661161783813167e+00 0 0 -4
191 34 8 4.0999999999999998e-01 5.7715475821054447e+00 9.2356629389571587e+00 6.6098087086274857e+00 0 0 -4
222 44 8 4.0999999999999998e-01 4.0614714075926326e+00 9.7324461841264842e+00 2.7718931531490898e+00 0 3 -1
276 62 8 4.0999999999999998e-01 1.1546419950339097e+00 7.1866048263429967e+00 5.3473188414593431e-01 -1 0 -6
185 32 8 4.0999999999999998e-01 6.7423980065999167e-01 9.9195824039840002e+00 3.9088257613879800e+00 1 0 0
76 14 6 -5.8799999999999997e-01 7.6939008494245300e+00 5.2949691014578670e+00 1.7658526919794448e+00 -1 -1 0
189 33 8 4.0999999999999998e-01 7.5793701159203435e+00 7.0852523277080657e+00 6.9589723847327445e+00 -2 3 -1
210 40 8 4.0999999999999998e-01 1.7152093222810800e+00 1.2419790191584919e+01 3.0084359010827653e-02 2 -3 1
153 21 8 4.0999999999999998e-01 7.4714891838855744e+00 1.3313622022217324e+01 6.3420854865452512e+00 2 1 -1
285 65 8 4.0999999999999998e-01 1.5863880840238243e+00 1.4288262819761583e+01 5.1291384748216098e+00 -1 2 0
59 13 2 -4.6100000000000002e-01 6.6306332273543704e+00 1.3662890971587300e+01 3.5051621064133043e-01 0 -2 0
247 53 7 -8.1999999999999995e-01 6.0729116513839783e+00 1.0689682397498906e+01 3.7982124136633062e+00 -1 1 0
248 53 8 4.0999999999999998e-01 6.4907075724356700e+00 1.1657282202748172e+01 3.7367437949679871e+00 -1 1 0
286 66 7 -8.1999999999999995e-01 4.2045052207125693e+00 1.2565835249594103e+01 5.9688626628443044e+00 1 -2 1
214 42 7 -8.1999999999999995e-01 1.8482082188767766e+00 1.3148727298758590e+01 3.7099669561080475e+00 0 2 0
256 56 7 -8.1999999999999995e-01 3.5503691261563457e+00 1.2133606071163118e+01 2.9997089410186228e-01 2 2 -4
172 28 7 -8.1999999999999995e-01 4.6655786721620736e+00 1.3608521498500505e+01 2.4458625986804456e+00 1 -2 1
227 46 8 4.0999999999999998e-01 5.4042182274223096e+00 1.4522398993996818e+01 4.9675960042188727e+00 -1 -2 -2
174 28 8 4.0999999999999998e-01 5.5549726359922929e+00 1.3573744091462876e+01 1.9239719125578258e+00 1 -2 1
283 65 7 -8.1999999999999995e-01 1.4504339389167960e+00 1.4785226471339648e+01 6.0547681061069811e+00 -1 2 0
215 42 8 4.0999999999999998e-01 1.0474748281418880e+00 1.2587902244512582e+01 4.0311893302682344e+00 0 2 0
288 66 8 4.0999999999999998e-01 3.9627271721218693e+00 1.3257243481696461e+01 6.7404720598363239e+00 1 -2 1
258 56 8 4.0999999999999998e-01 3.7093940992440992e+00 1.1662255066261395e+01 1.1642623232889766e+00 2 2 -4
207 39 8 4.0999999999999998e-01 2.0780078687403210e+00 1.5035858260220953e+01 8.2198802014025574e-01 -1 3 -2
9 9 1 8.0000000000000004e-01 3.7150505639990521e+00 1.2169381664533152e+01 3.7290204524146455e+00 1 0 -1
287 66 8 4.0999999999999998e-01 4.4099742986411918e+00 1.1681800948664165e+01 6.3998162488503043e+00 1 -2 1
216 42 8 4.0999999999999998e-01 1.5638234487585272e+00 1.3679757862518240e+01 2.8629783095812797e+00 0 2 0
284 65 8 4.0999999999999998e-01 2.2642706132921959e+00 1.4527933242322845e+01 6.6370132411484688e+00 -1 2 0
205 39 7 -8.1999999999999995e-01 1.4269731284625453e+00 1.5252207800298057e+01 1.5710653707112046e+00 -1 3 -2
220 44 7 -8.1999999999999995e-01 3.4864682638177111e+00 1.0545747585221086e+01 2.5920739233292664e+00 0 3 -1
173 28 8 4.0999999999999998e-01 4.2630320733473059e+00 1.4573065437252529e+01 2.5968597217344924e+00 1 -2 1
168 26 8 4.0999999999999998e-01 2.7348883988253425e-01 1.0863397106279617e+01 6.3997961124846983e+00 -2 -3 0
196 36 7 -8.1999999999999995e-01 7.6734598473928051e+00 1.2883270690305345e+01 4.4887699440628284e+00 -3 -2 -5
208 40 7 -8.1999999999999995e-01 7.1346071024542801e-01 1.2344034155436887e+01 7.6586187390549967e-02 2 -3 1
58 13 5 9.1100000000000003e-01 7.3875080781007938e+00 1.2416708818961276e+01 6.8234002617959533e-03 0 -2 0
53 12 4 3.1900000000000001e-01 4.6104996546424148e+00 2.7658151072187045e+00 1.1055798125988964e+01 -1 1 -1
54 12 3 -1.3800000000000001e-01 3.8558000923693578e+00 3.3450187943267875e+00 1.0091671725868938e+01 -1 1 -1
51 12 3 -1.3800000000000001e-01 5.3246587050030003e+00 3.8276990628392431e+00 1.1533376825340238e+01 -1 1 -1
47 12 2 -4.6100000000000002e-01 6.6042392031495520e+00 2.2514443004820976e+00 9.6420215904692377e+00 -1 1 -1
49 12 5 9.1100000000000003e-01 5.5872279702928278e+00 1.5232696338060685e+00 1.0339398418285777e+01 -1 1 -1
46 12 6 -5.8799999999999997e-01 6.4891548886605985e+00 7.6784776333989646e-01 1.1648967540873297e+01 -1 1 -1
52 12 3 -1.3800000000000001e-01 3.7995053267924654e+00 2.3508912152891615e+00 1.1956537171926781e+01 -1 1 -1
94 15 5 9.1100000000000003e-01 6.6290694019132235e-01 2.8577429779330625e+00 1.4526149483806016e+01 1 0 0
245 52 8 4.0999999999999998e-01 5.3225314068941580e+00 2.0242098985570989e+00 1.4877138536921692e+01 -1 -1 -3
244 52 7 -8.1999999999999995e-01 5.6675659643236562e+00 1.1184532695876033e+00 1.4541952043696295e+01 -1 -1 -3
50 12 2 -4.6100000000000002e-01 4.8821590406720432e+00 6.6854205067606409e-01 9.4018844714129166e+00 -1 1 -1
91 15 6 -5.8799999999999997e-01 9.8677184996140455e-01 2.7869425546599200e+00 1.2827093504340240e+01 1 0 0
158 23 8 4.0999999999999998e-01 1.4486713921967791e+00 4.2036204465342519e-01 1.2837781657176606e+01 0 -2 2
180 30 8 4.0999999999999998e-01 4.1376374198388364e+00 1.8638187947994744e-01 1.4941443559636784e+01 -1 2 0
246 52 8 4.0999999999999998e-01 6.2072499832795414e+00 1.1997847445595666e+00 1.3675377436843968e+01 -1 -1 -3
95 15 2 -4.6100000000000002e-01 4.7626625754323654e-01 1.4130530572930637e+00 1.4755710295792150e+01 1 0 0
99 15 3 -1.3800000000000001e-01 3.2796704257454619e+00 2.7492689437388766e+00 1.4971678832379643e+01 1 0 0
88 15 5 9.1100000000000003e-01 1.6992752291909075e-01 3.8980846309812138e+00 1.1792515725709338e+01 1 0 0
6 6 1 8.0000000000000004e-01 7.5611339661898898e+00 1.6386153112129512e-01 1.5379293427476703e+01 -2 -2 -1
98 15 4 3.1900000000000001e-01 2.2365279864911294e+00 3.5271588496035000e+00 1.5152511699006148e+01 1 0 0
85 15 2 -4.6100000000000002e-01 3.4934763053814899e-01 3.0732192545721766e+00 1.0586589061306691e+01 1 0 0
97 15 3 -1.3800000000000001e-01 2.5015344693793686e+00 4.7065343949612961e+00 1.4626951045822931e+01 1 0 0
165 25 8 4.0999999999999998e-01 7.2921403673358762e+00 1.9430691198359313e+00 7.8101131824518113e+00 -1 0 0
90 15 3 -1.3800000000000001e-01 1.0379239234750179e+00 6.0227898304337515e+00 1.3097024691050725e+01 1 0 0
266 59 8 4.0999999999999998e-01 1.9708503942143296e-01 8.9293172258882443e+00 1.5248193694656365e+01 -2 -1 -2
82 14 3 -1.3800000000000001e-01 4.8173970705388500e+00 5.3768809598021496e+00 1.4235742638841835e+01 -1 -1 -1
83 14 4 3.1900000000000001e-01 5.5691547464428277e+00 5.8909639633645803e+00 1.5251608431081941e+01 -1 -1 -1
84 14 3 -1.3800000000000001e-01 6.1882382015233741e+00 6.9648015146905147e+00 1.4601712481469782e+01 -1 -1 -1
107 16 2 -4.6100000000000002e-01 6.4596132203885581e+00 8.9163315509231520e+00 1.1813012980384713e+01 -1 -1 0
86 15 3 -1.3800000000000001e-01 2.1097578432934392e+00 5.7402963932693654e+00 1.1214091981799426e+01 1 0 0
274 62 7 -8.1999999999999995e-01 1.3172900731317649e+00 7.8103842984092280e+00 1.5136631134288644e+01 -1 0 -7
114 16 3 -1.3800000000000001e-01 4.9337193385711133e+00 6.6389564188144572e+00 1.1373314724101881e+01 -1 -1 0
111 16 3 -1.3800000000000001e-01 5.4585137639973098e+00 6.8797788977697403e+00 9.3093342531447973e+00 -1 -1 0
113 16 4 3.1900000000000001e-01 4.8422746655122362e+00 7.4902300170505569e+00 1.0300298635784428e+01 -1 -1 0
112 16 3 -1.3800000000000001e-01 3.5590696593980500e+00 7.5308903430072025e+00 9.9441940596917764e+00 -1 -1 0
109 16 5 9.1100000000000003e-01 5.4840377131919666e+00 9.0832588312121949e+00 1.0756114362847372e+01 -1 -1 0
106 16 6 -5.8799999999999997e-01 6.3214566785103967e+00 9.6883682006061669e+00 9.3448093024463130e+00 -1 -1 0
30 11 3 -1.3800000000000001e-01 7.0283653928609324e-01 8.9737257325206379e+00 9.4503233043567754e+00 0 -2 -1
233 48 8 4.0999999999999998e-01 3.7754699302315617e+00 1.0177809724026115e+01 1.2924378498272102e+01 -1 0 -2
110 16 2 -4.6100000000000002e-01 4.5057890246422190e+00 1.0151756845750109e+01 1.1026569924117025e+01 -1 -1 0
275 62 8 4.0999999999999998e-01 2.2187498506965579e+00 7.5002952813304669e+00 1.4695940373180276e+01 -1 0 -7
87 15 4 3.1900000000000001e-01 8.7226940880121684e-01 5.5908032472141924e+00 1.1853375335121841e+01 1 0 0
178 30 7 -8.1999999999999995e-01 3.3801855905576947e+00 1.5018760955412803e+01 1.5331354917122578e+01 -1 1 0
254 55 8 4.0999999999999998e-01 1.7106497962477747e+00 1.5071674493300993e+01 1.1039030275103489e+01 0 -3 -5
253 55 7 -8.1999999999999995e-01 1.3434328777641085e+00 1.5088959526639519e+01 1.0059327491518022e+01 0 -3 -5
209 40 8 4.0999999999999998e-01 3.8196616171664116e-01 1.2858909630122922e+01 1.4704974577403984e+01 2 -3 0
234 48 8 4.0999999999999998e-01 2.1527773173769291e+00 1.0462672444193043e+01 1.3083715453545251e+01 -1 0 -2
257 56 8 4.0999999999999998e-01 3.2796664392230710e+00 1.1481380441464394e+01 1.4920665522004674e+01 2 2 -5
232 48 7 -8.1999999999999995e-01 3.0711742922954461e+00 1.0632601557453579e+01 1.3474810516661886e+01 -1 0 -2
255 55 8 4.0999999999999998e-01 4.2731910532431439e-01 1.4597069252798164e+01 1.0033070942442277e+01 0 -3 -5
176 29 8 4.0999999999999998e-01 2.3842956044982353e+00 1.4280141910600602e+01 8.8328050889424148e+00 0 1 -1
177 29 8 4.0999999999999998e-01 3.9549949040325769e+00 1.4457182321272290e+01 8.9019340168904080e+00 0 1 -1
29 11 2 -4.6100000000000002e-01 8.5727186949136014e-01 1.0838960229215910e+01 1.1992381013289739e+01 0 -2 -1
175 29 7 -8.1999999999999995e-01 3.2583678652105323e+00 1.3943605844962594e+01 8.3737581738565723e+00 0 1 -1
162 24 8 4.0999999999999998e-01 4.0261212521148728e+00 1.2643366535703894e+01 1.2392138627494617e+01 4 -1 -2
28 11 5 9.1100000000000003e-01 6.5486934958139120e-01 1.1252721633267699e+01 1.0593506803598409e+01 0 -2 -1
57 13 4 3.1900000000000001e-01 6.8498288611581346e+00 1.1287405807955384e+01 1.4134307526040777e+01 0 -2 -1
264 58 8 4.0999999999999998e-01 6.4664853147477830e+00 1.3467871164085924e+01 8.8343888813767908e+00 -3 1 0
60 13 3 -1.3800000000000001e-01 6.0095256489344209e+00 1.0265225544627750e+01 1.4662919156246913e+01 0 -2 -1
5 5 1 8.0000000000000004e-01 4.0963558816315988e+00 1.2014504671950295e+01 9.9224510422655303e+00 2 -3 -1
25 11 2 -4.6100000000000002e-01 1.8575498091813873e+00 1.1661733263144793e+01 9.8743375059302725e+00 0 -2 -1
262 58 7 -8.1999999999999995e-01 5.8454845601403074e+00 1.2712533662243429e+01 8.8395565220172774e+00 -3 1 0
56 13 3 -1.3800000000000001e-01 6.1369614931057068e+00 1.1840441393929824e+01 1.3092049334348948e+01 0 -2 -1
157 23 7 -8.1999999999999995e-01 2.1023951215601260e+00 1.5066325771259557e+01 1.2672064334258902e+01 0 -3 2
263 58 8 4.0999999999999998e-01 6.4965499446794404e+00 1.1929216943314575e+01 8.8000502036720416e+00 -3 1 0
161 24 8 4.0999999999999998e-01 2.9162260452994944e+00 1.3865866455324982e+01 1.1853537469233121e+01 4 -1 -2
160 24 7 -8.1999999999999995e-01 3.7075077060144510e+00 1.3228732837753165e+01 1.1618221223387277e+01 4 -1 -2
159 23 8 4.0999999999999998e-01 2.6490702343979522e+00 1.4941415307185045e+01 1.3507292926900012e+01 0 -3 2
179 30 8 4.0999999999999998e-01 3.6392821707411227e+00 1.4071037919879826e+01 1.5303124472093225e+01 -1 1 0
23 10 4 3.1900000000000001e-01 1.3557685341358646e+01 1.2891069228034842e+00 2.5146669739490992e+00 -1 0 -1
19 10 5 9.1100000000000003e-01 1.1933449923131393e+01 1.6502218220025289e+00 3.1807109479282505e+00 -1 0 -1
21 10 3 -1.3800000000000001e-01 1.4550145896507420e+01 1.1164869839794704e+00 3.3998316359114775e+00 -1 0 -1
22 10 3 -1.3800000000000001e-01 1.3914601389754065e+01 2.3058719999957780e+00 1.7352514567433175e+00 -1 0 -1
24 10 3 -1.3800000000000001e-01 1.3533725651186485e+01 1.6321137127316507e-01 1.6859104166306547e+00 -1 0 -1
17 10 2 -4.6100000000000002e-01 1.1009804572680006e+01 1.9366058127599817e+00 2.0784543103456024e+00 -1 0 -1
154 22 7 -8.1999999999999995e-01 9.9249563445763886e+00 4.1616867094179453e+00 4.5024369845028085e+00 -2 2 -2
16 10 6 -5.8799999999999997e-01 1.1176023131746701e+01 2.9767515618324558e-01 4.1027222728935335e+00 -1 0 -1
20 10 2 -4.6100000000000002e-01 1.2311601493431459e+01 2.7895100083650934e+00 4.0900957168233107e+00 -1 0 -1
156 22 8 4.0999999999999998e-01 1.0750915332097108e+01 3.5625173312922160e+00 4.6862565491651367e+00 -2 2 -2
282 64 8 4.0999999999999998e-01 9.2321380103349284e+00 1.4118650752720802e-01 4.0181200742861298e+00 2 -1 -3
146 19 8 4.0999999999999998e-01 9.5024809689255747e+00 1.4636565657057359e+00 9.8721231710133428e-01 -2 -2 -1
14 10 2 -4.6100000000000002e-01 1.3168312401891283e+01 2.8175389475172891e-01 5.7785132123494485e+00 -1 0 -1
145 19 7 -8.1999999999999995e-01 8.5076363061565843e+00 1.7325827745270261e+00 9.4261949163319569e-01 -2 -2 -1
201 37 8 4.0999999999999998e-01 1.4309538238110942e+01 4.6165639994652521e+00 3.5289619121784512e+00 0 -3 1
239 50 8 4.0999999999999998e-01 9.3584835801275101e+00 2.4994174412996117e+00 7.5647529515131913e+00 1 -3 -2
120 17 3 -1.3800000000000001e-01 1.3157090993864907e+01 3.8261359934424153e+00 6.8451019652662675e+00 -1 0 1
8 8 1 8.0000000000000004e-01 9.4546321448538251e+00 5.0092056697733200e+00 6.6294813170174223e+00 -2 1 -1
155 22 8 4.0999999999999998e-01 1.0141532578390784e+01 4.8810864623198462e+00 3.8914838000121552e+00 -2 2 -2
117 17 4 3.1900000000000001e-01 1.3657188857761255e+01 5.0651817446381235e+00 7.0033162988399926e+00 -1 0 1
273 61 8 4.0999999999999998e-01 8.6141143556609290e+00 3.1703490053248209e+00 4.1043967993666728e+00 0 -1 -2
182 31 8 4.0999999999999998e-01 1.1744303254655987e+01 2.6904399120265752e+00 1.2717877952048720e-01 -2 2 2
147 19 8 4.0999999999999998e-01 8.1631312242738030e+00 2.2090512168541698e+00 1.7923400099465763e+00 -2 -2 -1
230 47 8 4.0999999999999998e-01 1.3377153095081537e+01 5.9574841676171850e+00 1.5104570451623445e+00 1 1 0
167 26 8 4.0999999999999998e-01 1.4641451809268990e+01 1.0009111154972855e+01 5.6513650091372618e+00 -3 -3 0
72 14 4 3.1900000000000001e-01 8.5081607372459089e+00 7.9223403232022225e+00 2.4150703445924075e+00 -1 -1 0
229 47 7 -8.1999999999999995e-01 1.2694026866727190e+01 5.7255292063652901e+00 7.9715560827723575e-01 1 1 0
118 17 5 9.1100000000000003e-01 1.2414222340962199e+01 6.4128199905402088e+00 6.9929990526203420e+00 -1 0 1
71 14 3 -1.3800000000000001e-01 8.7820032279356841e+00 7.6241884679660288e+00 3.6807377593023034e+00 -1 -1 0
124 17 5 9.1100000000000003e-01 1.2388928744116850e+01 8.1463339753755903e+00 4.5601529704293418e+00 -1 0 1
121 17 6 -5.8799999999999997e-01 1.1929986578724039e+01 6.7062248566049014e+00 5.4143584822359490e+00 -1 0 1
125 17 2 -4.6100000000000002e-01 1.1935697492581093e+01 7.7030585539812995e+00 3.2016697051687526e+00 -1 0 1
129 17 3 -1.3800000000000001e-01 1.0320931261004203e+01 9.5435492509487982e+00 5.2537535517683995e+00 -1 0 1
70 14 2 -4.6100000000000002e-01 1.0182553209909342e+01 5.7687804456405907e+00 1.7095019629796999e+00 -1 -1 0
122 17 2 -4.6100000000000002e-01 1.3833814450196932e+01 8.1937616475987216e+00 4.9050418541247334e+00 -1 0 1
78 14 3 -1.3800000000000001e-01 9.3196698439507752e+00 8.9756022940144717e+00 1.9967804708315209e+00 -1 -1 0
128 17 4 3.1900000000000001e-01 1.1622034236080797e+01 9.6803762357196899e+00 5.1936211887070192e+00 -1 0 1
231 47 8 4.0999999999999998e-01 1.1706175868180011e+01 5.8461116387805578e+00 1.1148970971578951e+00 1 1 0
73 14 5 9.1100000000000003e-01 8.8941100806435376e+00 6.4452539817311436e+00 1.4718594028086422e+00 -1 -1 0
116 17 3 -1.3800000000000001e-01 1.4725830424406785e+01 5.2270314313425681e+00 6.2602216433507545e+00 -1 0 1
127 17 3 -1.3800000000000001e-01 1.2001825814729271e+01 9.9301169759251042e+00 6.4555293471056494e+00 -1 0 1
115 17 2 -4.6100000000000002e-01 1.3060166021591932e+01 7.6116612632397178e+00 7.5227025631044029e+00 -1 0 1
119 17 2 -4.6100000000000002e-01 1.1110659646930829e+01 5.9964312466018841e+00 7.5578084899087363e+00 -1 0 1
200 37 8 4.0999999999999998e-01 1.4052196778716992e+01 6.2570647765615126e+00 3.7510163063957824e+00 0 -3 1
199 37 7 -8.1999999999999995e-01 1.4277909498427553e+01 5.5190624097455618e+00 3.0821453234727514e+00 0 -3 1
104 16 2 -4.6100000000000002e-01 7.7679608853666231e+00 8.8090575309892749e+00 7.5090864658948950e+00 -1 -1 0
265 59 7 -8.1999999999999995e-01 1.4760274833743026e+01 9.4672286897995495e+00 9.7661716818411654e-02 -3 -1 -1
74 14 2 -4.6100000000000002e-01 8.7245433098045826e+00 6.8527402265970760e+00 6.6497395521890823e-02 -1 -1 0
280 64 7 -8.1999999999999995e-01 8.2600804959523160e+00 1.5326645610598108e+01 3.8152968779828438e+00 2 -2 -3
281 64 8 4.0999999999999998e-01 8.3600315592162371e+00 1.5030680785060412e+01 2.8138311044152551e+00 2 -2 -3
55 13 2 -4.6100000000000002e-01 8.0232122134924690e+00 1.1731329560978455e+01 1.1461903467215202e+00 0 -2 0
65 13 2 -4.6100000000000002e-01 9.6856746643422422e+00 1.4298118701472008e+01 1.4040098789555178e+00 0 -2 0
151 21 7 -8.1999999999999995e-01 7.7663659312102196e+00 1.4048331144452256e+01 7.0598132849416917e+00 2 1 -1
152 21 8 4.0999999999999998e-01 8.5814460189387471e+00 1.3653903428109551e+01 7.5585894644831546e+00 2 1 -1
66 13 3 -1.3800000000000001e-01 1.2413165916001157e+01 1.2055821975410671e+01 4.4608606829161140e-01 0 -2 0
166 26 7 -8.1999999999999995e-01 1.5193115523535383e+01 1.0828346732922894e+01 5.4860232734647099e+00 -3 -3 0
250 54 7 -8.1999999999999995e-01 1.4534482610157021e+01 1.2039417116785529e+01 3.0317601410497259e+00 -1 1 0
252 54 8 4.0999999999999998e-01 1.4839837257874933e+01 1.1530966494689380e+01 3.8619142679525793e+00 -1 1 0
278 63 8 4.0999999999999998e-01 1.5371875253172110e+01 1.4488669402757973e+01 7.6320380953128071e+00 1 -4 -1
198 36 8 4.0999999999999998e-01 7.8864459834155136e+00 1.3866420117796626e+01 4.2974567713448231e+00 -3 -2 -5
18 10 3 -1.3800000000000001e-01 1.1932167787166030e+01 1.3405333889447784e+01 7.3278023856913990e+00 -1 -1 -1
10 10 2 -4.6100000000000002e-01 1.2760733900347011e+01 1.3772603176910634e+01 4.0755462883533884e+00 -1 -1 -1
1 1 1 8.0000000000000004e-01 1.5222349641628137e+01 1.0972791129794533e+01 1.3205996233437252e+00 -3 0 -2
197 36 8 4.0999999999999998e-01 8.4905825598205595e+00 1.2324412572007393e+01 4.3872490397405421e+00 -3 -2 -5
64 13 5 9.1100000000000003e-01 1.0183783538574291e+01 1.3574232778722198e+01 2.6272403668957528e-01 0 -2 0
15 10 3 -1.3800000000000001e-01 1.0533595825282747e+01 1.4965969879198839e+01 7.1121991942453890e+00 -1 -1 -1
251 54 8 4.0999999999999998e-01 1.3741066728570674e+01 1.2661219643146865e+01 3.2812353127771323e+00 -1 1 0
126 17 3 -1.3800000000000001e-01 1.1950475515213228e+01 1.0729272823084615e+01 4.4504429454104955e+00 -1 0 1
12 10 4 3.1900000000000001e-01 1.1215272832992971e+01 1.4015239530821141e+01 6.4010941129553691e+00 -1 -1 -1
13 10 5 9.1100000000000003e-01 1.2242257381122872e+01 1.4748148387523502e+01 5.0952538728786418e+00 -1 -1 -1
68 13 4 3.1900000000000001e-01 1.1062968371285381e+01 1.1952208139689306e+01 6.2480577437425466e-01 0 -2 0
69 13 3 -1.3800000000000001e-01 1.0869257577581578e+01 1.1621588806525915e+01 1.9287495267678747e+00 0 -2 0
11 10 3 -1.3800000000000001e-01 1.0348079146804292e+01 1.3130772256450896e+01 5.9854291424902639e+00 -1 -1 -1
269 60 8 4.0999999999999998e-01 1.2480886133577224e+01 2.6787873466639875e+00 9.8708739681414777e+00 -6 -4 -3
211 41 7 -8.1999999999999995e-01 1.2753723877493517e+01 7.0148810040985754e-01 1.3590386187813971e+01 -1 -4 -2
213 41 8 4.0999999999999998e-01 1.3191210895951222e+01 4.5183858686143397e-01 1.2678431782438945e+01 -1 -4 -2
260 57 8 4.0999999999999998e-01 1.0761835562319527e+01 3.7878567202684628e+00 1.3377926014811615e+01 0 3 2
268 60 7 -8.1999999999999995e-01 1.1482396909726742e+01 2.8686091335093402e+00 1.0094691068968416e+01 -6 -4 -3
259 57 7 -8.1999999999999995e-01 1.0156647685096308e+01 4.5752140830559060e+00 1.3063237717950511e+01 0 3 2
261 57 8 4.0999999999999998e-01 9.3466851464680278e+00 4.4142473208319686e+00 1.3716466681145551e+01 0 3 2
43 12 5 9.1100000000000003e-01 8.1674137484559459e+00 1.0875409919074275e+00 1.1935890238034441e+01 -1 1 -1
202 38 7 -8.1999999999999995e-01 1.3363979795146472e+01 1.2345092435581624e+00 8.9467623123309483e+00 -1 -7 -4
204 38 8 4.0999999999999998e-01 1.3380002249912231e+01 1.3538762667939708e+00 7.9580975472544706e+00 -1 -7 -4
44 12 2 -4.6100000000000002e-01 8.1732344000673489e+00 6.0659664879830355e-01 1.3324467715083030e+01 -1 1 -1
89 15 2 -4.6100000000000002e-01 1.4255032312105261e+01 3.9271689122380735e+00 1.2242977591849979e+01 0 0 0
7 7 1 8.0000000000000004e-01 1.3239611237365603e+01 4.6604115928038432e+00 1.4442974729456171e+01 1 3 0
40 12 2 -4.6100000000000002e-01 8.4495464948688372e+00 2.5064754378412379e+00 1.1635871895582637e+01 -1 1 -1
270 60 8 4.0999999999999998e-01 1.1231974576124163e+01 2.6391138969505525e+00 1.1035556184313325e+01 -6 -4 -3
77 14 2 -4.6100000000000002e-01 7.8478800718604669e+00 4.3879935259401783e+00 1.4938828041361328e+01 -1 -1 -1
223 45 7 -8.1999999999999995e-01 8.2672159514134620e+00 4.6986606000004247e+00 1.0247400998123558e+01 2 -2 -1
240 50 8 4.0999999999999998e-01 1.0568092559860780e+01 3.1411723201922941e+00 8.6091250074678793e+00 1 -3 -2
181 31 7 -8.1999999999999995e-01 1.2040186129627330e+01 3.0157843020347017e+00 1.4587852153236438e+01 -2 2 1
123 17 3 -1.3800000000000001e-01 1.4164767833607412e+01 5.0693861930362818e+00 8.1979555916991487e+00 -1 0 1
92 15 2 -4.6100000000000002e-01 1.5068866865886992e+01 3.8266211695955965e+00 1.4854395553551772e+01 0 0 0
224 45 8 4.0999999999999998e-01 8.1393521424352340e+00 3.8773363238884526e+00 1.0803699725204638e+01 2 -2 -1
2 2 1 8.0000000000000004e-01 1.5302816478989900e+01 1.4963402051754957e+00 9.4046097129431772e+00 -1 -1 -2
203 38 8 4.0999999999999998e-01 1.3500322689223575e+01 1.9057235774338310e-01 8.9449800890977578e+00 -1 -7 -4
41 12 3 -1.3800000000000001e-01 8.6913927431742746e+00 1.1575237505659704e-01 9.5124586720312738e+00 -1 1 -1
48 12 3 -1.3800000000000001e-01 1.0286881363542332e+01 5.0465369142218108e-02 1.0963171624660976e+01 -1 1 -1
183 31 8 4.0999999999999998e-01 1.2531758776230538e+01 2.1556217517961516e+00 1.4296142398861425e+01 -2 2 1
225 45 8 4.0999999999999998e-01 7.9977134864101913e+00 4.4094334165906410e+00 9.3400243080297916e+00 2 -2 -1
238 50 7 -8.1999999999999995e-01 9.9547359105212525e+00 3.2983403360693679e+00 7.7597872736348759e+00 1 -3 -2
193 35 7 -8.1999999999999995e-01 1.2602722539871291e+01 8.2884291505047685e+00 1.4565720192666850e+01 -3 1 -6
93 15 3 -1.3800000000000001e-01 1.5379132523425119e+01 6.4050619045855388e+00 1.1300014096714369e+01 0 0 0
101 16 3 -1.3800000000000001e-01 1.0340652192476711e+01 9.8505172849793237e+00 9.1639449728905653e+00 -1 -1 0
194 35 8 4.0999999999999998e-01 1.2767585302719684e+01 7.6380609677188849e+00 1.3794573150343979e+01 -3 1 -6
218 43 8 4.0999999999999998e-01 1.2464013496495410e+01 6.3837352501732623e+00 1.1936364262764064e+01 1 5 1
219 43 8 4.0999999999999998e-01 1.1510383506962214e+01 5.6048887745876153e+00 1.2836424022474873e+01 1 5 1
217 43 7 -8.1999999999999995e-01 1.2416635587414175e+01 6.0212939072448579e+00 1.2881119714366218e+01 1 5 1
294 68 8 4.0999999999999998e-01 8.9053029046498189e+00 7.3870784214904956e+00 1.3754130469081275e+01 -1 2 -1
291 67 8 4.0999999999999998e-01 1.0073401639533413e+01 9.0418227221099716e+00 1.2192752811007869e+01 2 -1 -1
290 67 8 4.0999999999999998e-01 1.1508529638633991e+01 9.1777157048947871e+00 1.2901679795069358e+01 2 -1 -1
289 67 7 -8.1999999999999995e-01 1.1084143535483063e+01 9.0110013445650274e+00 1.1987264189400037e+01 2 -1 -1
292 68 7 -8.1999999999999995e-01 8.7232169930793209e+00 7.6491263446865956e+00 1.2793315234418891e+01 -1 2 -1
4 4 1 8.0000000000000004e-01 9.2789886633664604e+00 6.1333436027336088e+00 1.1341039081515108e+01 0 -1 -1
235 49 7 -8.1999999999999995e-01 1.1041568812585377e+01 6.9549728232776262e+00 1.0284201360284605e+01 1 2 0
236 49 8 4.0999999999999998e-01 1.1146330617499530e+01 7.9777634871963450e+00 1.0538139864621563e+01 1 2 0
237 49 8 4.0999999999999998e-01 1.1143185795321529e+01 6.8246147377845414e+00 9.3061982678042732e+00 1 2 0
293 68 8 4.0999999999999998e-01 7.8040851176729458e+00 8.0244735834005194e+00 1.2657785773086921e+01 -1 2 -1