variable        infile index data.mol
variable        mytemp index 298

# set up simulation
#read_restart    ${NAME}.restart.*

# the following information is saved to restart files
units           real
atom_style      full
boundary        p p p
pair_style      lj/cut/coul/long 7
kspace_style    pppm 0.0001
pair_modify     tail yes
pair_modify     mix arithmetic
special_bonds   amber

bond_style      harmonic
angle_style     harmonic
dihedral_style  charmm
#improper_style  cvff

read_data       ${infile}
read_data       data.mol
  orthogonal box = (0 0 0) to (15.4361 15.394 15.438)
  2 by 1 by 2 MPI processor grid
  reading atoms ...
  294 atoms
  reading velocities ...
  294 velocities
  scanning bonds ...
  4 = max bonds/atom
  scanning angles ...
  6 = max angles/atom
  scanning dihedrals ...
  12 = max dihedrals/atom
  reading bonds ...
  226 bonds
  reading angles ...
  275 angles
  reading dihedrals ...
  270 dihedrals
  4 = max # of 1-2 neighbors
  6 = max # of 1-3 neighbors
  12 = max # of 1-4 neighbors
  14 = max # of special neighbors
  special bonds CPU = 0.000415038 secs
  read_data CPU = 0.0112507 secs

#replicate       3 4 4

neighbor        2.0 bin
neigh_modify    delay 0 every 1 check yes page 1000000 one 20000
timestep        1.0
#velocity        all create ${mytemp} 314159265 mom yes rot yes dist gaussian

## end information that is saved to restart files

## create velocity profile
#minimize       1e-4 1e-6 10000 10000
#velocity        all create  ${mytemp} 314159265 units box
velocity        all zero linear units box
dump            DUMP all custom 1000 ${NAME}.lammpstrj id type x y z mol
dump            DUMP all custom 1000 mol.lammpstrj id type x y z mol
thermo_style    custom step vol temp press ke pe etotal enthalpy evdwl ecoul epair ebond eangle edihed eimp emol elong etail lx ly lz xy xz yz pxy pxz pyz pxx pyy pzz
thermo          1000
#
## thermostat and integrator

#fix             NPT all npt temp ${mytemp} ${mytemp} 100.0 iso 1.0 1.0 100.0
fix             NVT all nvt temp ${mytemp} ${mytemp} 100.0
fix             NVT all nvt temp 298 ${mytemp} 100.0
fix             NVT all nvt temp 298 298 100.0

restart         50000 restart.${NAME}.1 restart.${NAME}.2
restart         50000 restart.mol.1 restart.${NAME}.2
restart         50000 restart.mol.1 restart.mol.2
run             10000000
PPPM initialization ...
  using 12-bit tables for long-range coulomb (src/kspace.cpp:332)
  G vector (1/distance) = 0.383154
  grid = 12 12 12
  stencil order = 5
  estimated absolute RMS force accuracy = 0.0217689
  estimated relative force accuracy = 6.55565e-05
  using double precision KISS FFT
  3d grid and FFT values/proc = 3211 432
Neighbor list info ...
  update every 1 steps, delay 0 steps, check yes
  max neighbors/atom: 20000, page size: 1000000
  master list distance cutoff = 9
  ghost atom cutoff = 9
  binsize = 4.5, bins = 4 4 4
  1 neighbor lists, perpetual/occasional/extra = 1 0 0
  (1) pair lj/cut/coul/long, perpetual
      attributes: half, newton on
      pair build: half/bin/newton
      stencil: half/bin/3d/newton
      bin: standard
Per MPI rank memory allocation (min/avg/max) = 17.93 | 17.93 | 17.93 Mbytes
Step Volume Temp Press KinEng PotEng TotEng Enthalpy E_vdwl E_coul E_pair E_bond E_angle E_dihed E_impro E_mol E_long E_tail Lx Ly Lz Xy Xz Yz Pxy Pxz Pyz Pxx Pyy Pzz 
       0    3668.4289     296.0583    829.72279    258.57061   -732.09212    -473.5215   -429.13111    1.4862502     4701.073   -1335.7285    83.149685    121.24722    399.23953            0    603.63643   -6038.2878   -33.444113      15.4361       15.394       15.438            0            0            0     2538.957    277.14971   -1291.9428    3309.9977    -105.5423     -715.287 
    1000    3668.4289    285.96576    65.120743    249.75602   -720.96144   -471.20542   -467.72145    7.4542723     4706.026   -1329.0763    93.799772    118.13021    396.18482            0    608.11481   -6042.5565   -33.444113      15.4361       15.394       15.438            0            0            0    1183.5949   -1769.0686   -1213.7074   -1299.0973    2501.9982   -1007.5386 
    2000    3668.4289    303.68456    -689.1519    265.23122   -719.39969   -454.16847   -491.03828  0.043899689    4697.6804   -1344.2456    87.945981     140.8128    396.08715            0    624.84593   -6041.9699   -33.444113      15.4361       15.394       15.438            0            0            0    -3790.776    3342.2558     234.0541   -3887.2006    1124.6628    695.08215 
    3000    3668.4289    319.74513   -3372.0326    279.25815   -711.02401   -431.76586   -612.17052   -15.627904    4719.3931   -1340.2303    104.32569    125.00603    399.87461            0    629.20633   -6043.9955   -33.444113      15.4361       15.394       15.438            0            0            0    1503.2547    3169.5287   -1814.6483   -3108.5408   -2829.7446   -4177.8124 
    4000    3668.4289    288.76181   -3216.8078    252.19802   -745.74704   -493.54902   -665.64911   -16.941165    4706.1531   -1353.6305    88.403788    125.62975    393.84989            0    607.88343   -6042.8424   -33.444113      15.4361       15.394       15.438            0            0            0    -1560.287    3488.5157   -1016.3066   -3106.5651   -5544.6228   -999.23544 
    5000    3668.4289     311.8486   -2364.7044     272.3615   -730.07558   -457.71408   -584.22641    8.3774105    4688.6823   -1340.4632    90.379442    120.73405     399.2741            0    610.38759   -6037.5229   -33.444113      15.4361       15.394       15.438            0            0            0    1198.3801   -5117.9917    2410.2123   -5444.9973    450.00251   -2099.1185 
    6000    3668.4289    312.47345    1559.1831    272.90723   -700.81345   -427.90622    -344.4895    20.260785     4697.758   -1325.0275     96.57036    130.10467    397.53898            0    624.21401   -6043.0462   -33.444113      15.4361       15.394       15.438            0            0            0   -2901.6553     2372.477    820.67874    5068.2933    2308.0968   -2698.8409 
    7000    3668.4289    293.67362    3026.9277    256.48788   -726.61134   -470.12346     -308.182    13.774377     4709.424   -1318.6235    87.300759    108.93079    395.78064            0    592.01219   -6041.8219   -33.444113      15.4361       15.394       15.438            0            0            0    2246.6684   -1694.4604   -2245.6992   -2044.2468    5059.8181    6065.2119 
    8000    3668.4289    296.63182   -4151.0046    259.07151   -724.75984   -465.68833   -687.76821   -6.7471214    4753.2504   -1294.2886    80.327183    95.055652    394.14591            0    569.52874   -6040.7919   -33.444113      15.4361       15.394       15.438            0            0            0    677.26705    2335.2185    6745.0444   -2636.5341   -1654.0543   -8162.4255 
    9000    3668.4289    312.32081   -775.58066    272.77392   -732.45761   -459.68368   -501.17746    8.8536296    4694.4628   -1337.3246    92.705759    110.01885    402.14234            0    604.86695    -6040.641   -33.444113      15.4361       15.394       15.438            0            0            0    -374.9155   -543.64267    -2295.584   -1107.6105   -1008.6892   -210.44238 
   10000    3668.4289    302.63932    4942.0401    264.31833   -713.65299   -449.33466   -184.93417    4.3760692    4709.2419    -1325.706    78.980898    135.98913    397.08296            0    612.05298   -6039.3239   -33.444113      15.4361       15.394       15.438            0            0            0    1430.3501    1150.5072    72.180753    3882.7557     8712.904    2230.4607 
   11000    3668.4289    288.21589    350.87806    251.72123    -746.4444   -494.72317    -475.9511    12.507002    4687.1319   -1341.4985    81.152083    115.75718     398.1448            0    595.05406   -6041.1374   -33.444113      15.4361       15.394       15.438            0            0            0    -1737.346    2414.0901   -116.76315    269.72305    186.86706    596.04406 
   12000    3668.4289     270.8165    2232.6425      236.525   -724.22331   -487.69831   -368.25133    20.577306    4667.0348   -1351.2099    104.49315    125.07068    397.42277            0     626.9866   -6038.8221   -33.444113      15.4361       15.394       15.438            0            0            0     -1364.35    4189.4752    2832.2908    2016.4463    -1836.853    6518.3343 
   13000    3668.4289    308.14295   -503.09189    269.12507   -735.38009   -466.25502   -493.17057    16.854735    4671.9683   -1354.1639    101.94158    125.67143    391.17079            0     618.7838   -6042.9869   -33.444113      15.4361       15.394       15.438            0            0            0    740.27135   -79.493439    3566.1154    2330.8042   -4296.2003    456.12049 
   14000    3668.4289    316.36854   -688.39032    276.30912   -722.70437   -446.39525   -483.22432    6.3525931    4721.4555   -1316.6937    84.914962    109.86786    399.20649            0    593.98931   -6044.5018   -33.444113      15.4361       15.394       15.438            0            0            0   -1482.6728   -1945.1228   -120.10204    1357.8271   -4671.6616    1248.6635 
   15000    3668.4289    326.44252    2159.1394     285.1075   -712.08811    -426.9806   -311.46606    20.519959     4704.174   -1317.2414    87.132177    113.82414    404.19694            0    605.15326   -6041.9353   -33.444113      15.4361       15.394       15.438            0            0            0    3853.0537    2347.2354    483.92345    3483.6384   -1515.6636    4509.4433 
   16000    3668.4289    316.24032   -394.06759    276.19713   -715.92335   -439.72622   -460.80894    8.8688865    4714.1228   -1317.7439     81.11258    123.31613    397.39182            0    601.82053   -6040.7355   -33.444113      15.4361       15.394       15.438            0            0            0   -62.644462   -214.89658    3096.7463   -509.12886   -1013.5375    340.46359 
   17000    3668.4289    303.42119   -1531.4171    265.00119   -733.10176   -468.10057    -550.0318    5.1758199    4694.2493   -1344.5349    92.567401    120.98925    397.87651            0    611.43316     -6043.96   -33.444113      15.4361       15.394       15.438            0            0            0    -3033.562    1523.1555    420.45825   -422.49614    -5651.582     1479.827 
   18000    3668.4289    311.62579     226.4162    272.16691   -738.24837   -466.08147   -453.96814   -1.3519545    4715.2565   -1329.7175    82.787732      110.584    398.09741            0    591.46914   -6043.6221   -33.444113      15.4361       15.394       15.438            0            0            0    414.08218    -2159.756    -3166.326    -921.0008    1211.4453    388.80412 
   19000    3668.4289    309.38356   -3074.6899     270.2086   -700.23954   -430.03095   -594.52769    1.0653264    4719.3523   -1319.2193    97.781492    117.41462    403.78366            0    618.97977    -6039.637   -33.444113      15.4361       15.394       15.438            0            0            0   -3026.0804    2838.6568   -1567.1045    1743.9067   -6880.0163   -4087.9602 
   20000    3668.4289    321.09331    2371.7661    280.43563   -741.17444   -460.73882   -333.84869    8.7223034    4651.3934   -1378.8306    93.010204    148.19589    396.45005            0    637.65614   -6038.9463   -33.444113      15.4361       15.394       15.438            0            0            0    954.25575   -3102.2376    652.04065    7168.1194   -711.57434    658.75315 
   21000    3668.4289     292.7539   -1482.7292    255.68463   -722.62311   -466.93848   -546.26489   0.12170077    4684.2715   -1353.5915    107.27712    123.93675    399.75454            0    630.96842   -6037.9847   -33.444113      15.4361       15.394       15.438            0            0            0   -6521.6775    1823.2967    5359.1531   -3400.9643    -4052.116    3004.8927 
   22000    3668.4289    289.79778   -3423.9926    253.10282   -734.10265   -480.99983   -664.18436   -23.908861    4707.5616   -1361.3021    85.139011    144.99067    397.06976            0    627.19944   -6044.9549   -33.444113      15.4361       15.394       15.438            0            0            0   -4004.6754    -3746.023    3809.3628     777.7972   -2734.3055   -8315.4695 
   23000    3668.4289    287.56015   -733.56714    251.14852   -737.06249   -485.91397   -525.16001    4.2384614    4691.4393   -1344.6775    95.470214    116.45627    395.68853            0    607.61501   -6040.3552   -33.444113      15.4361       15.394       15.438            0            0            0     4056.398     2815.098   -5690.1422   -5357.7111     723.6508    2433.3589 
   24000    3668.4289     302.1599     4897.384    263.89961   -731.19377   -467.29416   -205.28278    8.2478229    4698.8652   -1337.6338    89.129394    114.34362    402.96703            0    606.44005   -6044.7468   -33.444113      15.4361       15.394       15.438            0            0            0   -1412.7255    2347.5607    532.39508    6117.2329    5348.4515    3226.4675 
   25000    3668.4289    312.45724    415.95627    272.89308   -731.14125   -458.24817    -435.9944    14.278016    4677.3375   -1348.0156    104.69146    112.55287    399.62998            0    616.87431   -6039.6311   -33.444113      15.4361       15.394       15.438            0            0            0    2570.8195   -7575.9545    -10434.94    3129.3429   -1346.6773   -534.79674 
   26000    3668.4289    320.09611   -789.22951    279.56469   -707.19168   -427.62699   -469.85098   -2.2454596     4712.156   -1330.5736    97.762406    124.01743    401.60209            0    623.38193   -6040.4841   -33.444113      15.4361       15.394       15.438            0            0            0   -1395.7264    2095.1157    3031.4594   -4805.3568    3772.0614   -1334.3932 
   27000    3668.4289    303.90366   -170.96562    265.42257   -738.51357     -473.091   -482.23771    8.8334779    4704.2753   -1332.7194    87.245282    106.42854    400.53206            0    594.20588   -6045.8283   -33.444113      15.4361       15.394       15.438            0            0            0    1124.5036   -1724.0493     787.6099    421.51808    1598.8801   -2533.2951 
   28000    3668.4289    260.94681   -2521.8567    227.90503   -727.36234   -499.45731   -634.37733    20.572586    4681.7196   -1342.1191    104.60575     117.4627    392.68827            0    614.75673   -6044.4112   -33.444113      15.4361       15.394       15.438            0            0            0   -2873.8598   -6008.8569    2299.7365   -3944.7435   -3023.9864    -596.8403 
   29000    3668.4289    290.11658   -2580.6288    253.38125   -721.99966   -468.61841   -606.68275   -19.687313    4728.7291   -1331.0379    96.402694    111.23282     401.4027            0    609.03821   -6040.0797   -33.444113      15.4361       15.394       15.438            0            0            0    1513.8591   -3673.1838    1493.7356    1159.3277   -5798.5112   -3102.7028 
   30000    3668.4289    287.32842     2244.803    250.94613    -727.6475   -476.70137    -356.6038    16.503992    4684.0065   -1340.4411    92.155359    116.32603    404.31223            0    612.79363   -6040.9516   -33.444113      15.4361       15.394       15.438            0            0            0    2070.7927    555.09048    829.99805    915.90286    2487.9755    3330.5307 
   31000    3668.4289    309.11979   -3129.6971    269.97822   -690.69662    -420.7184   -588.15804   -12.316795    4723.3674   -1330.2968    108.11323    130.68881    400.79812            0    639.60016   -6041.3474   -33.444113      15.4361       15.394       15.438            0            0            0    2931.1504    3081.3079    4382.2987    -12421.58   -10.553717    3043.0423 
   32000    3668.4289    307.54788   -5551.4008    268.60535   -725.54511   -456.93976   -753.94122   -3.4537659    4704.8909   -1339.6214     100.8324    116.75709    396.48678            0    614.07627   -6041.0585   -33.444113      15.4361       15.394       15.438            0            0            0    2194.0852    6263.9853   -992.94535   -10615.719   -4238.1365   -1800.3467 
   33000    3668.4289    282.51531    3842.5304    246.74247   -721.41591   -474.67344   -269.09701    21.826457    4685.2721   -1332.6972    96.934064    115.47258    398.87464            0    611.28129   -6039.7958   -33.444113      15.4361       15.394       15.438            0            0            0    -1181.979    1068.8192    1951.9502    2885.2894    2602.1054    6040.1964 
   34000    3668.4289    313.89282   -1116.0143    274.14688   -716.66178   -442.51491   -502.22198   -7.6533492    4709.5157   -1337.5748    98.584449     123.9516    398.37696            0    620.91301   -6039.4372   -33.444113      15.4361       15.394       15.438            0            0            0   -4335.8042   -4248.2416    809.94534   -3605.0308    1476.8104   -1219.8226 
   35000    3668.4289    271.09825    106.46979    236.77107   -700.55294   -463.78187   -458.08571   -16.777317    4740.5391   -1313.5305    101.26419     111.1551    400.55825            0    612.97754   -6037.2922   -33.444113      15.4361       15.394       15.438            0            0            0    1645.4471   -641.28691   -2037.3066   -388.09667   -1662.1778    2369.6839 
   36000    3668.4289    289.27485    1705.9041     252.6461    -713.1047   -460.45859   -369.19226   -14.616576    4723.2394   -1330.6395    97.048699    115.06891    405.41719            0    617.53481   -6039.2623   -33.444113      15.4361       15.394       15.438            0            0            0    2807.5825   -2098.5773   -1035.6321    1607.0458    1706.9195    1803.7471 
   37000    3668.4289    306.82185    3221.3275    267.97125   -735.70151   -467.73026   -295.38836    3.6584509     4687.276   -1351.5798     86.85828    128.62693    400.39308            0    615.87829   -6042.5143   -33.444113      15.4361       15.394       15.438            0            0            0   -1937.2125   -2384.2637    59.842551    6256.3319    1318.2619    2089.3887 
   38000    3668.4289    273.25148   -183.66489    238.65165   -725.94654   -487.29489   -497.12101     11.39968    4664.1907    -1366.346    115.41034    127.41199    397.57713            0    640.39945   -6041.9364   -33.444113      15.4361       15.394       15.438            0            0            0   -1863.2153   -4154.3498    113.29703    2809.4495   -2755.1271   -605.31709 
   39000    3668.4289      278.091    955.71505    242.87838   -734.00767   -491.12929   -439.99827   -12.843138    4725.1007    -1329.575    82.107204    114.34084    399.11928            0    595.56733   -6041.8325   -33.444113      15.4361       15.394       15.438            0            0            0    1808.5634    1872.3446   -782.75584    1072.1479   -1345.5663    3140.5635 
   40000    3668.4289    301.54914   -427.29728    263.36619   -713.83489    -450.4687   -473.32922    5.1649007    4704.9802    -1327.533    88.544544    129.25467    395.89885            0    613.69806   -6037.6781   -33.444113      15.4361       15.394       15.438            0            0            0    1940.0572    -1243.455    3315.4475   -529.71743    4777.1936    -5529.368 
   41000    3668.4289    289.59305    506.63333    252.92401   -721.00871   -468.08471   -440.97968    12.409765    4688.3801   -1335.1053    95.984063    118.70599    399.40654            0    614.09659   -6035.8952   -33.444113      15.4361       15.394       15.438            0            0            0    3515.4232   -1663.3112    1630.5687    2249.8167   -898.47843    168.56173 
   42000    3668.4289    305.32442     1930.292    266.66343    -736.5573   -469.89387   -366.62273    15.102208    4678.1776   -1349.5142    92.381304    123.76682    396.80875            0    612.95687    -6042.794   -33.444113      15.4361       15.394       15.438            0            0            0    1618.8856   -1109.7386   -1838.9259   -2673.4114    10771.131   -2306.8439 
   43000    3668.4289    302.56958   -4861.8878    264.25742   -721.16682    -456.9094   -717.02172    6.4491812    4687.3207   -1348.4419    83.329413    142.79199    401.15371            0    627.27512   -6042.2119   -33.444113      15.4361       15.394       15.438            0            0            0   -2206.6682    -5280.019   -76.405514   -461.31197    -9330.272   -4794.0793 
   44000    3668.4289    291.74564   -2722.6199    254.80403   -742.62658   -487.82255   -633.48345    32.031656    4650.1096   -1358.4465    97.232283    120.03436    398.55325            0    615.81989   -6040.5878   -33.444113      15.4361       15.394       15.438            0            0            0   -3929.7444   -1539.1076   -1878.6732   -762.53158    2364.6576   -9769.9857 
   45000    3668.4289    314.12252    314.74311    274.34749   -731.18137   -456.83387   -439.99503    18.536324    4694.7015   -1326.4955    88.865173    106.39703    400.05198            0    595.31418   -6039.7334   -33.444113      15.4361       15.394       15.438            0            0            0   -2492.6575    29.483685   -870.33904   -1640.1944   -3364.3687    5948.7924 
   46000    3668.4289    295.31894   -1058.2378    257.92488   -734.68713   -476.76225   -533.37826   -4.9813212    4706.3196   -1340.5157    94.047329    114.05621    397.72503            0    605.82857   -6041.8539   -33.444113      15.4361       15.394       15.438            0            0            0    3152.5619     3485.679   -3323.8435   -124.27759   -3492.1012    441.66537 
   47000    3668.4289    286.64003   -4616.8831    250.34491   -735.68556   -485.34065   -732.34516   -5.2681004    4706.8833   -1339.2562    87.529656    116.76279    399.27814            0    603.57059   -6040.8714   -33.444113      15.4361       15.394       15.438            0            0            0    3250.8846   -392.94945   -4417.9687   -1395.6076   -10161.046   -2293.9957 
   48000    3668.4289    289.25351   -2264.5658    252.62746   -746.27096    -493.6435   -614.79839    23.891913    4671.1828   -1341.3072    89.607449    105.55448    399.87432            0    595.03624    -6036.382   -33.444113      15.4361       15.394       15.438            0            0            0   -52.417228    4904.8299    832.14009   -5822.3229   -251.39747   -719.97713 
   49000    3668.4289     289.3175   -1343.7716    252.68335   -730.86601   -478.18266   -550.07481    6.9264903    4683.6243   -1350.7467    88.783208    130.30351    400.79399            0    619.88071   -6041.2975   -33.444113      15.4361       15.394       15.438            0            0            0    -3991.117    2917.7924    16.313115   -5958.8894   -960.86778    2888.4424 
   50000    3668.4289    295.56887    4982.8557    258.14316   -729.82246    -471.6793   -205.09516    18.745516    4680.9439   -1344.4699    91.624212    120.68576    402.33752            0    614.64749   -6044.1594   -33.444113      15.4361       15.394       15.438            0            0            0    2651.8108    7133.0955   -2259.6899    9729.7597    2862.4346    2356.3728 
   51000    3668.4289    301.07063    7034.1155    262.94826   -734.65994   -471.71167   -95.384579    15.947364    4676.7177   -1345.2823    76.477085     130.3525    403.79276            0    610.62234   -6037.9473   -33.444113      15.4361       15.394       15.438            0            0            0   -205.13578     -387.247   -1146.6178    2936.3416    9557.9888    8608.0162 
   52000    3668.4289    286.75954    -6583.441    250.44929   -760.17195   -509.72266   -861.93854   -9.6297871     4708.884   -1341.4565    79.563689    102.85924    398.86162            0    581.28455   -6040.7107   -33.444113      15.4361       15.394       15.438            0            0            0    1318.0176    3516.9883    1218.7037   -6917.5833   -40.589847    -12792.15 
   53000    3668.4289    282.27014   -1539.3608    246.52834   -742.16723   -495.63889   -577.99511   -7.6566618    4695.7906   -1350.4191    93.349544    115.77515    399.12713            0    608.25183    -6038.553   -33.444113      15.4361       15.394       15.438            0            0            0   -944.58254    2841.4637   -1187.1518   -4334.8943   -4970.9486    4687.7607 
   54000    3668.4289    287.25143   -732.96558    250.87889   -749.59083   -498.71195    -537.9258     19.73599    4661.3623   -1361.8748    88.744261    119.21597    404.32375            0    612.28398   -6042.9731   -33.444113      15.4361       15.394       15.438            0            0            0     3411.623   -213.09175    662.01263   -502.92766    576.80219   -2272.7713 
   55000    3668.4289    291.70203    773.50629    254.76594   -732.18515    -477.4192    -436.0364   -10.856048    4710.4636   -1340.7894    90.080859    117.89392    400.62952            0     608.6043    -6040.397   -33.444113      15.4361       15.394       15.438            0            0            0   -2228.9872   -4874.3308    1136.2167   -4224.6289   -26.868804    6572.0165 
   56000    3668.4289    301.30496    995.94573    263.15293   -718.65611   -455.50318   -402.21981    40.629683    4654.3686    -1343.457    99.124156    121.70048    403.97625            0    624.80089   -6038.4553   -33.444113      15.4361       15.394       15.438            0            0            0    5264.3998    987.58156    529.47381   -6850.3982    5132.0544     4706.181 
   57000    3668.4289    287.77015   -3794.6161    251.33193   -729.57476   -478.24283   -681.25582   -7.8415195    4694.8277   -1352.5007    96.494667    126.94067     399.4906            0    622.92594   -6039.4868   -33.444113      15.4361       15.394       15.438            0            0            0   -2708.3491   -5209.0181   -2826.3256    -10640.43     2831.469   -3574.8871 
   58000    3668.4289    330.22671   -5200.8502    288.41253   -751.28457   -462.87204   -741.11895   -19.417125    4714.5604   -1350.6668    83.664079    120.97737    394.74075            0     599.3822   -6045.8101   -33.444113      15.4361       15.394       15.438            0            0            0    -1368.323   -2198.5964    682.20661   -7664.8847   -2261.4928   -5676.1733 
   59000    3668.4289    293.49507    1693.4965    256.33194   -748.34873   -492.01679   -401.41426   -2.7220302    4710.8167   -1334.2493    71.775888    114.34067    399.78406            0    585.90062    -6042.344   -33.444113      15.4361       15.394       15.438            0            0            0    767.17445     -3234.99   -4735.7212    597.61681    3567.5743    915.29848 
   60000    3668.4289     308.1943    2028.2794    269.16992   -739.65585   -470.48594   -361.97244     -9.52303    4710.1687   -1339.9717    84.858354    118.21148    397.24603            0    600.31586   -6040.6174   -33.444113      15.4361       15.394       15.438            0            0            0   -215.89915    2057.3679    2652.7412    92.554007     4905.512    1086.7722 
   61000    3668.4289     308.8179   -2945.3383    269.71456   -736.48338   -466.76882   -624.34522    7.5528731    4682.6263   -1351.4734    89.116703    129.99135    395.88197            0    614.99002   -6041.6525   -33.444113      15.4361       15.394       15.438            0            0            0    4287.8037   -10.295555    3873.6506   -6734.9101   -1575.9061   -525.19854 
   62000    3668.4289    322.74815   -1732.1539    281.88092   -729.94618   -448.06526   -540.73597   -21.756208    4727.3914   -1335.9357    88.115643    124.51831     393.3556            0    605.98955   -6041.5709   -33.444113      15.4361       15.394       15.438            0            0            0   -4609.1398   -1156.4346    1103.7812   -58.974065   -5711.7827    574.29488 
   63000    3668.4289    288.77155    -1039.097    252.20653    -719.1656   -466.95907   -522.55104   -15.070786    4727.8979   -1327.4884     86.29318    123.00293    399.02668            0    608.32279   -6040.3155   -33.444113      15.4361       15.394       15.438            0            0            0   -922.79105     2038.731   -2154.7925   -1374.5447    2179.5068   -3922.2532 
   64000    3668.4289    301.58871    4287.9828    263.40075   -721.45916   -458.05841   -228.65017  -0.38561589    4712.9354   -1330.0408    100.19607    106.97795    401.40766            0    608.58168   -6042.5907   -33.444113      15.4361       15.394       15.438            0            0            0    1987.3542      1464.64   -1293.6571    5762.3862    6047.0487    1054.5135 
   65000    3668.4289    298.81968    -1075.551    260.98233   -723.90045   -462.91812   -520.46039   0.76703534    4706.8962   -1333.6558    81.818444    116.45701    411.47994            0    609.75539    -6041.319   -33.444113      15.4361       15.394       15.438            0            0            0   -1736.3808    966.23975   -2906.2297    -1537.194    80.549349   -1770.0083 
   66000    3668.4289    280.62182   -1778.4913    245.08874   -751.99001   -506.90127   -602.05104     16.69892    4680.9298   -1347.0525     89.40232     107.9202    397.73997            0    595.06249   -6044.6812   -33.444113      15.4361       15.394       15.438            0            0            0    2531.8016    2242.4997    728.77744    3239.0537   -2105.2804   -6469.2473 
   67000    3668.4289    302.02714    1066.2218    263.78366   -734.81407   -471.03041   -413.98725    3.8266681    4699.6145   -1338.6975    86.150418    113.75471    403.97834            0    603.88347   -6042.1387   -33.444113      15.4361       15.394       15.438            0            0            0    1225.0144    1953.6957   -1411.7501    788.03402    8068.7046   -5658.0732 
   68000    3668.4289     336.0067    2215.6074    293.46064   -730.51851   -437.05787   -318.52228    4.5570921    4695.5054   -1339.0392    69.672098    129.57585     409.2727            0    608.52065   -6039.1016   -33.444113      15.4361       15.394       15.438            0            0            0   -3628.3789   -6571.2364    -1048.629    3476.3674    224.84725    2945.6074 
   69000    3668.4289    279.61032   -4280.3903    244.20532    -729.0018   -484.79648   -713.79853    12.410898    4679.6505   -1351.6871    101.16924    119.98058    401.53544            0    622.68526   -6043.7485   -33.444113      15.4361       15.394       15.438            0            0            0    1555.5502    2354.0838    2311.9073   -7695.5747     749.6313   -5895.2276 
   70000    3668.4289    291.29348   -915.41879    254.40912    -746.1424   -491.73328   -540.70843   -10.364091    4737.4179   -1317.5323     67.94407    102.25604    401.18983            0    571.38994   -6044.5862   -33.444113      15.4361       15.394       15.438            0            0            0    -381.9468    939.21368    1065.2086    2493.7441     429.5763   -5669.5768 
   71000    3668.4289    303.77456    228.94954    265.30982   -722.50769   -457.19786     -444.949    13.616333    4681.4285   -1344.3422    87.710797    127.60609    406.51762            0     621.8345    -6039.387   -33.444113      15.4361       15.394       15.438            0            0            0   -772.41364   -3928.0674    903.89387     1363.298    632.03425   -1308.4836 
   72000    3668.4289    298.71232    5168.1092    260.88858   -724.79425   -463.90567   -187.41042   -12.439421    4735.5902   -1316.2093    82.235775     107.5049    401.67439            0    591.41507     -6039.36   -33.444113      15.4361       15.394       15.438            0            0            0   -4747.0306    1633.3694   -3917.1905    524.46428    9345.4915     5634.372 
   73000    3668.4289    308.38259   -1754.1631    269.33437    -757.0254   -487.69104   -581.53924    5.8093026    4695.4965   -1339.7303    80.762891    98.957948    402.98403            0    582.70487    -6041.036   -33.444113      15.4361       15.394       15.438            0            0            0    1289.3513   -5851.1836   -1903.7402   -87.944329   -1233.9604   -3940.5846 
   74000    3668.4289    313.11982    -3542.416    273.47176   -727.27005   -453.79829   -643.31851   -12.684236    4729.4485    -1324.381    85.946865    104.75749    406.40665            0      597.111   -6041.1453   -33.444113      15.4361       15.394       15.438            0            0            0   -541.02557    -378.4701   -26.464745   -4850.3726   -2425.6754   -3351.1998 
   75000    3668.4289    280.29272    83.585303    244.80131   -740.03112   -495.22981   -490.75797    3.1620948    4683.8139   -1355.8345    75.686325    138.18333    401.93373            0    615.80338   -6042.8105   -33.444113      15.4361       15.394       15.438            0            0            0    2672.5367   -1038.7383    2231.1741    3395.7772   -2146.4806   -998.54069 
   76000    3668.4289    277.36377   -396.13484    242.24324   -722.59437   -480.35114   -501.54446    11.884367    4732.1569   -1299.8495    84.335514    94.710887    398.20869            0    577.25509   -6043.8908   -33.444113      15.4361       15.394       15.438            0            0            0    2543.5146    647.89503   -4788.5179    5176.9455   -7395.4639    1030.1139 
   77000    3668.4289    296.42439    720.38297    258.89035   -747.81142   -488.92108   -450.38039   -6.4280639    4714.3454   -1335.5178    75.947621    121.68421    390.07459            0    587.70642   -6043.4352   -33.444113      15.4361       15.394       15.438            0            0            0   -203.88768    2816.3498    1322.1787    3745.4485   -4567.3875    2983.0879 
   78000    3668.4289     322.4185   -983.61656    281.59302   -716.66066   -435.06765    -487.6914   -6.4767813    4730.8524   -1314.2045    82.060113    116.89012    398.59362            0    597.54386   -6038.5801   -33.444113      15.4361       15.394       15.438            0            0            0    1599.2603   -3387.5716   -2138.5841   -792.43753   -2518.9638    360.55164 
   79000    3668.4289    297.27308    1484.6907    259.63157   -739.79367    -480.1621   -400.73075    7.3485927    4700.8626   -1331.7052    78.336291    114.33484    399.24037            0     591.9115   -6039.9164   -33.444113      15.4361       15.394       15.438            0            0            0   -2328.9618   -1517.4775   -2076.7393    2092.0128    2338.6993    23.360111 
   80000    3668.4289    277.51593   -1636.2449    242.37613    -713.4496   -471.07347   -558.61301    6.0537555    4700.3685    -1335.566    90.855134     126.2766    404.98471            0    622.11644   -6041.9883   -33.444113      15.4361       15.394       15.438            0            0            0    297.02703    3024.9304   -1181.5218   -4532.8443     5728.798   -6104.6882 
   81000    3668.4289    291.08476     692.3965    254.22684   -742.31105   -488.08422   -451.04082    12.582523    4691.2109   -1343.5498    95.392882    104.27799     401.5679            0    601.23878   -6047.3433   -33.444113      15.4361       15.394       15.438            0            0            0    3224.4974    4425.6332    1992.4318    5830.7974   -4547.7942    794.18625 
   82000    3668.4289    304.77224     446.4515    266.18117   -727.91061   -461.72944   -437.84416    36.129425     4695.175   -1310.9779    83.682144    102.95486    396.43027            0    583.06727   -6042.2823   -33.444113      15.4361       15.394       15.438            0            0            0    -1844.776   -2792.9321    950.86129   -4537.3247    4514.0622     1362.617 
   83000    3668.4289    290.91336    2213.7027    254.07714   -719.51385   -465.43671   -347.00302    13.382552    4695.5284   -1333.3928    102.70853    112.84236    398.32802            0    613.87891   -6042.3037   -33.444113      15.4361       15.394       15.438            0            0            0    526.94744    1638.9487    -7739.023   -3720.9319    9707.2214     654.8185 
   84000    3668.4289     294.2389   -3660.1802    256.98159   -732.10743   -475.12584   -670.94648   -14.083901    4710.3326   -1347.9564     93.04822    120.81174    401.98897            0    615.84893    -6044.205   -33.444113      15.4361       15.394       15.438            0            0            0    1490.6071    4489.0911    2039.0923   -3699.2343   -5856.8281   -1424.4782 
   85000    3668.4289    300.36208   -3683.3373    262.32944   -705.58087   -443.25143   -640.31098    3.6877899    4725.4095   -1316.8574    92.468484    118.46925    400.33879            0    611.27653   -6045.9547   -33.444113      15.4361       15.394       15.438            0            0            0    927.43803    763.76424   -1905.5796   -7197.7586   -1395.4954   -2456.7578 
   86000    3668.4289    264.13665   -3408.4941    230.69096   -734.64364   -503.95267   -686.30803    6.5680805    4702.8572   -1332.1834    87.877363    108.14704    401.51538            0    597.53979   -6041.6087   -33.444113      15.4361       15.394       15.438            0            0            0   -5200.2407    156.50834    993.21774   -7628.9522   -5164.5938    2568.0638 
   87000    3668.4289    310.09618    1718.1365    270.83098   -734.93032   -464.09934   -372.17857    -7.690417    4729.6891    -1320.547    85.265714    102.33669    398.01426            0    585.61666   -6042.5456   -33.444113      15.4361       15.394       15.438            0            0            0   -3191.4648    1673.2956    2603.8539   -1590.7222     2340.673    4404.4587 
   88000    3668.4289    298.54126    -41.94453    260.73917   -744.16005   -483.42088   -485.66492    21.847462    4683.4492   -1338.3686    89.449643     107.5664    397.19251            0    594.20855   -6043.6652   -33.444113      15.4361       15.394       15.438            0            0            0   -540.57004    2071.4542   -872.00956    7806.5939   -1453.0891   -6479.3383 
   89000    3668.4289    271.30057    5811.7415    236.94777   -723.60656   -486.65879   -175.72904    30.954204    4685.4434   -1324.2102    85.143546    117.49551    397.96459            0    600.60365   -6040.6078   -33.444113      15.4361       15.394       15.438            0            0            0    1301.4306   -169.14541    467.15017     9187.692    8003.1426    244.38988 
   90000    3668.4289    292.42787   -1824.8993    255.39988   -722.50956   -467.10968   -564.74229   -6.3887607    4737.2054   -1311.3507     75.72046    114.28136    398.83934            0    588.84115   -6042.1673   -33.444113      15.4361       15.394       15.438            0            0            0   -203.70358    1737.8706    2753.2259    697.17546   -7541.6295     1369.756 
   91000    3668.4289    293.39509   -1187.3223    256.24463   -703.91304   -447.66841   -511.19048   -18.039141    4735.1481   -1320.0154    91.484233    127.92797    396.69011            0    616.10231   -6037.1243   -33.444113      15.4361       15.394       15.438            0            0            0   -464.35754   -1122.7766    290.98609    5180.2425   -4859.7276   -3882.4818 
   92000    3668.4289    311.34125   -1747.1865    271.91839   -717.80065   -445.88225    -539.3572   -7.6469658    4725.4189    -1328.255    102.96831    105.91074    401.57529            0    610.45433   -6046.0269   -33.444113      15.4361       15.394       15.438            0            0            0   -3396.9726   -2483.9336    1346.8011   -1862.7128   -1729.7331   -1649.1135 
   93000    3668.4289    318.58958   -2648.8349    278.24892   -709.54978   -431.30086   -573.01425    15.733981    4718.5279   -1311.4057    89.799567    112.92546    399.13089            0    601.85592   -6045.6675   -33.444113      15.4361       15.394       15.438            0            0            0   -731.30304    242.86842    25.373728   -855.62648    -2683.785   -4407.0932 
   94000    3668.4289    290.54499    1716.0899    253.75542   -728.60011    -474.8447   -383.03342    2.5736157    4723.4624   -1315.5486    73.503424     111.9741    401.47101            0    586.94853   -6041.5846   -33.444113      15.4361       15.394       15.438            0            0            0    1222.1444   -1463.7325    2706.7313    4962.7206    1853.2418   -1667.6926 
   95000    3668.4289    301.33783    1738.1795    263.18164   -702.46764     -439.286   -346.29293   -16.493623    4757.9716   -1300.4298    64.865106    131.83688    401.26017            0    597.96216   -6041.9078   -33.444113      15.4361       15.394       15.438            0            0            0    -2877.476    1721.4003   -98.235543     3334.864   -1113.3612    2993.0356 
   96000    3668.4289    290.31613   -3641.9284    253.55553   -695.09338   -441.53785   -636.38201    6.1128619     4716.425   -1320.6298    93.064522     129.7127    402.75918            0    625.53639   -6043.1677   -33.444113      15.4361       15.394       15.438            0            0            0    530.94587   -104.66133    259.85105    3670.3057   -8867.6256   -5728.4653 
   97000    3668.4289     309.5468    3886.2887    270.35116   -707.13209   -436.78093   -228.86343    3.5920277    4756.5786   -1280.9061    82.628992    94.976186    396.16885            0    573.77402   -6041.0767   -33.444113      15.4361       15.394       15.438            0            0            0   -2767.5026   -497.70172   -4959.8243   -1946.9966    7982.9253    5622.9375 
   98000    3668.4289    328.61391    5659.5634    287.00395   -715.10155    -428.0976   -125.30942    4.7873276    4727.7352    -1304.627    72.534071    109.55877    407.43257            0    589.52541   -6037.1495   -33.444113      15.4361       15.394       15.438            0            0            0    4059.6017   -156.74178   -4490.3681    9085.0209    6899.6815     993.9878 
   99000    3668.4289    296.94475   -1144.6029    259.34482   -726.21251   -466.86769   -528.10426    6.7164175    4703.2781   -1328.3879    89.290906    112.20567     400.6788            0    602.17538   -6038.3824   -33.444113      15.4361       15.394       15.438            0            0            0    1751.1061   -6625.7297   -1359.8589    1287.4826    2310.4444   -7031.7358 
  100000    3668.4289    343.50377    4625.4134    300.00841   -718.08779   -418.07938   -170.61851   -20.963013    4756.2706   -1305.3673    80.678027     104.2736    402.32787            0     587.2795   -6040.6749   -33.444113      15.4361       15.394       15.438            0            0            0    399.77345    2056.3776   -6904.1979    7927.9924   -408.32118    6356.5691 
  101000    3668.4289    273.57627   -817.92063    238.93532   -727.63002    -488.6947   -532.45368   -17.357359    4745.1618    -1314.203    81.389057    108.73742    396.44654            0    586.57302   -6042.0074   -33.444113      15.4361       15.394       15.438            0            0            0    929.72722   -4247.2483   -3603.0698   -47.545413   -6188.1213    3781.9048 
  102000    3668.4289    324.42836    2220.4429    283.34838    -732.5161   -449.16772   -330.37342 -0.044596917    4730.2744   -1313.0452    89.305246    93.811436    397.41242            0     580.5291    -6043.275   -33.444113      15.4361       15.394       15.438            0            0            0   -949.75131   -2130.2509    2401.0915   -1585.4097    3837.6054    4409.1329 
  103000    3668.4289    312.44403    2826.1562    272.88153   -739.86525   -466.98372   -315.78359   -1.0541385    4709.3509   -1333.1439    89.215923     103.6855    400.37722            0    593.27864   -6041.4406   -33.444113      15.4361       15.394       15.438            0            0            0   -697.80753    870.72532    -1748.887    7732.2596   -4347.8475    5094.0565 
  104000    3668.4289    302.66584   -4031.9059    264.34149   -752.77116   -488.42967   -704.13774   -11.192337    4701.9528   -1354.1337    88.576452    115.97304    396.81307            0    601.36256   -6044.8942   -33.444113      15.4361       15.394       15.438            0            0            0    1991.8207    5871.1814    1326.7109   -1955.4028   -6921.5952   -3218.7196 
  105000    3668.4289    307.29567    1537.4255    268.38508   -722.71545   -454.33038   -372.07769    20.511954    4684.3077   -1335.8056     90.29115    124.72648    398.07248            0    613.09011   -6040.6252   -33.444113      15.4361       15.394       15.438            0            0            0    2805.5998   -1793.8264   -965.69331   -2050.1386    710.86691    5951.5482 
  106000    3668.4289    273.57001   -3482.9601    238.92985   -716.05388   -477.12403   -663.46334    2.2483082    4708.7768   -1328.2673    80.289516    135.18247    396.74145            0    612.21344   -6039.2924   -33.444113      15.4361       15.394       15.438            0            0            0   -457.42706   -201.31318    3564.4003   -986.44433   -4195.7353   -5266.7007 
  107000    3668.4289    291.11449     4911.057     254.2528    -706.4282    -452.1754   -189.43251    10.350366    4712.8257    -1317.674    84.699059    126.25752    400.28921            0    611.24579     -6040.85   -33.444113      15.4361       15.394       15.438            0            0            0   -2769.7748   -6209.8224      1469.82    4268.7415    4727.8786    5736.5508 
  108000    3668.4289    316.36469     662.7299    276.30575   -746.47598   -470.17023     -434.714     20.65878     4656.486   -1366.6012    78.632837    140.85948    400.63286            0    620.12518   -6043.7459   -33.444113      15.4361       15.394       15.438            0            0            0    2545.3136    793.66008   -981.07143    3289.4661    -2901.914    1600.6376 
  109000    3668.4289    325.54985    4491.3019    284.32786   -708.83805   -424.51019   -184.22432   -6.8865615    4731.9678   -1307.5083    70.435733    124.57659    403.65789            0    598.67021   -6032.5895   -33.444113      15.4361       15.394       15.438            0            0            0   -1131.5498   -398.21864    23.141326    6006.5013    2116.4752    5350.9291 
  110000    3668.4289    277.27795    359.41639    242.16828   -726.01104   -483.84276   -464.61389    14.456492    4680.8205   -1343.4078     89.17996     131.0052     397.2116            0    617.39676   -6038.6848   -33.444113      15.4361       15.394       15.438            0            0            0   -2164.2716    2626.6181   -1584.1502   -2521.0857    2939.4647    659.87019 
  111000    3668.4289    294.96079   -2674.5461    257.61207   -739.96636   -482.35429   -625.44323   -17.843461    4732.5291   -1324.8426     77.09938    103.69355     404.0833            0    584.87623   -6039.5282   -33.444113      15.4361       15.394       15.438            0            0            0    2796.1683    1132.5526    467.86804    731.79473   -2603.2222   -6152.2109 
  112000    3668.4289    296.76483   -3498.1349    259.18768   -747.97018    -488.7825   -675.93367   -8.6109277    4700.9993   -1349.7743    78.588059    122.08624    401.12977            0    601.80407   -6042.1626   -33.444113      15.4361       15.394       15.438            0            0            0    2389.5642    419.99398    1560.2976   -914.78076   -4554.9361   -5024.6878 
  113000    3668.4289    310.23342   -1431.0663    270.95084   -727.95156   -457.00072   -533.56315    4.6108096     4707.312   -1331.7259    79.620336    116.43426    407.71972            0    603.77432   -6043.6487   -33.444113      15.4361       15.394       15.438            0            0            0   -3076.6909    1002.0352    2250.4467   -3450.4936   -3082.6698    2239.9645 
  114000    3668.4289    298.64668   -1530.5155    260.83124   -729.98027   -469.14902   -551.03202   0.30902829    4726.9845   -1317.6393    92.112656    102.87501    392.67133            0      587.659   -6044.9328   -33.444113      15.4361       15.394       15.438            0            0            0   -674.17641    2966.9819    224.47048   -2926.1933   -1748.9939     83.64066 
  115000    3668.4289    314.49523   -1241.1938    274.67301     -731.746   -457.07299    -523.4772    16.010216    4687.1337   -1338.5627    89.841534    119.63641    397.33874            0    606.81668   -6041.7066   -33.444113      15.4361       15.394       15.438            0            0            0    948.35949    410.29818   -3787.5363   -4465.1222    3686.8852   -2945.3443 
  116000    3668.4289    323.45442    1198.3976    282.49776   -719.19193   -436.69416   -372.57957    1.9024063    4718.5939   -1320.0905    85.733487    115.28579    399.87932            0     600.8986   -6040.5868   -33.444113      15.4361       15.394       15.438            0            0            0   -3873.0573   -1613.3822   -3146.5707    4849.9215   -3865.4733    2610.7446 
  117000    3668.4289    279.60148   -2159.6443     244.1976   -719.86036   -475.66276   -591.20431    26.852477    4669.0346    -1345.752    98.431269    128.66096    398.79938            0    625.89161    -6041.639   -33.444113      15.4361       15.394       15.438            0            0            0   -490.37273    2631.1755    2133.9613   -5836.9429   -2571.4557    1929.4657 
  118000    3668.4289     291.7421    1103.0768    254.80094   -738.91305    -484.1121    -425.0972    4.2521389     4700.502   -1337.7134     82.03597    113.07788    403.68649            0    598.80034   -6042.4675   -33.444113      15.4361       15.394       15.438            0            0            0   -1487.8579     111.0978   -161.11676    2116.9875   -2191.7783    3384.0212 
  119000    3668.4289    319.40285   -791.91812    278.95921   -721.16536   -442.20614   -484.57398    2.5929664     4716.582   -1321.7904    89.149478    111.86365    399.61191            0    600.62503   -6040.9654   -33.444113      15.4361       15.394       15.438            0            0            0    2582.9499    663.43482   -2845.1397    3626.0636   -2418.0039   -3583.8141 
  120000    3668.4289    269.48476    1189.9385    235.36188   -711.76926   -476.40738   -412.74535    8.6009479    4710.2482   -1325.2123    92.330698    118.47959    402.63272            0    613.44301   -6044.0615   -33.444113      15.4361       15.394       15.438            0            0            0   -1084.1093   -2.6560455     955.4304    2018.0562    472.35098    1079.4084 
  121000    3668.4289    327.74185    4161.8574    286.24231   -719.54998   -433.30768   -210.64717    9.8526005    4690.2432   -1340.9598    83.308764    134.76263    403.33842            0    621.40982   -6041.0556   -33.444113      15.4361       15.394       15.438            0            0            0    2560.3847    3240.7039    2105.6638    6596.6277    2873.5204    3015.4243 
  122000    3668.4289     297.8258   -517.81906     260.1143   -743.71037   -483.59607   -511.29953    28.695083    4670.2683   -1342.6915     88.14752    107.46725    403.36634            0    598.98111   -6041.6549   -33.444113      15.4361       15.394       15.438            0            0            0    686.61791    2588.6851    262.23101   -2456.8072    156.99905    746.35091 
  123000    3668.4289    279.17047    1266.0045    243.82117   -722.46089   -478.63972   -410.90814   -16.062904    4719.2865   -1338.9695    84.720282    127.39232    404.39598            0    616.50858   -6042.1931   -33.444113      15.4361       15.394       15.438            0            0            0    982.29698   -309.52642   -789.69567    2199.4144   -589.00069    2187.5998 
  124000    3668.4289    328.77329   -4915.8638    287.14314   -721.01229   -433.86915    -696.8692    9.7631942    4684.3537   -1348.7354    90.635855    129.21634    407.87093            0    627.72313   -6042.8523   -33.444113      15.4361       15.394       15.438            0            0            0    1107.9579    982.47066   -725.01865   -3619.6686   -8545.5206   -2582.4021 
  125000    3668.4289    306.79946   -5235.4141     267.9517   -738.73371   -470.78201   -750.87809   -5.9857668    4696.7791   -1353.7219    88.108157    126.45791    400.42216            0    614.98823   -6044.5152   -33.444113      15.4361       15.394       15.438            0            0            0    2995.0779   -1254.1177    -1796.584   -12011.137   -3864.7853     169.6804 
  126000    3668.4289    289.54504    4345.8889    252.88208   -715.02036   -462.13828   -229.63204    37.545634    4701.9061   -1303.1541    83.869666    106.10318    398.16094            0    588.13378   -6042.6059   -33.444113      15.4361       15.394       15.438            0            0            0     3643.017   -128.88822    4257.3146    9075.8673    2423.1456    1538.6539 
  127000    3668.4289    301.43177    3808.2637    263.26368   -735.61889   -472.35521   -268.61207    22.621792    4691.3171   -1326.1361    81.280788    109.02819    400.20818            0    590.51716    -6040.075   -33.444113      15.4361       15.394       15.438            0            0            0    1160.3765    959.36542   -467.20455    1836.0554   -1595.9736    11184.709 
  128000    3668.4289     301.1337   -4328.4786    263.00335   -726.19952   -463.19617   -694.77096    12.703281    4680.2877   -1349.7733    102.34991     118.2375    402.98638            0    623.57379   -6042.7643   -33.444113      15.4361       15.394       15.438            0            0            0   -1277.6639   -114.07729    3353.8922   -5976.4419   -962.60009   -6046.3938 
  129000    3668.4289    275.25951   -729.67296    240.40542   -748.84843   -508.44301   -547.48071    12.646194    4669.2944   -1360.0384    93.638272    119.28867    398.26299            0    611.18993   -6041.9789   -33.444113      15.4361       15.394       15.438            0            0            0   -735.42756     1054.883   -4364.1099    1940.5297   -1904.9574   -2224.5911 
  130000    3668.4289    299.24027   -537.93624    261.34967   -714.03841   -452.68874   -481.46847    15.601085    4705.4812   -1319.2146     85.97673    114.02794    405.17154            0    605.17621   -6040.2969   -33.444113      15.4361       15.394       15.438            0            0            0   -1664.6855    907.53765    1263.5875    4049.3958    755.48196   -6418.6865 
  131000    3668.4289    293.74423    -1728.401    256.54956   -707.56918   -451.01962   -543.48955    16.432009    4707.3877   -1318.4178    98.476353    107.88138    404.49091            0    610.84865   -6042.2375   -33.444113      15.4361       15.394       15.438            0            0            0    -1261.417   -512.69419    210.87811   -471.84545   -5085.2099    371.85238 
  132000    3668.4289    289.32147   -2895.2232    252.68682   -675.26448   -422.57766   -577.47289   -7.8258244    4742.1176   -1303.2256    100.59466    124.78323    402.58321            0    627.96109   -6037.5173   -33.444113      15.4361       15.394       15.438            0            0            0     801.4296    1003.0326   -4883.5591    -7767.357   -3154.8464    2236.5337 
  133000    3668.4289    312.44392    2490.8076    272.88144   -729.81502   -456.93357   -323.67469   -2.0520806    4734.4982   -1312.6684     81.17064    99.336063    402.34667            0    582.85338   -6045.1145   -33.444113      15.4361       15.394       15.438            0            0            0    5192.7259    1866.1951    1269.8112   -3948.7872    4181.0784    7240.1316 
  134000    3668.4289    268.29836       474.63    234.32571   -741.43476   -507.10905   -481.71622    2.8478489    4699.1204   -1338.5275    88.533802    114.68493    393.87397            0     597.0927   -6040.4958   -33.444113      15.4361       15.394       15.438            0            0            0    2084.4842   -4889.5409    1640.1167    5298.7847   -2440.9642   -1433.9306 
  135000    3668.4289    285.12205   -60.552842    249.01914   -701.95318   -452.93405   -456.17364   -3.2770941    4700.5528   -1341.9571    96.540547    136.40933    407.05409            0    640.00397   -6039.2328   -33.444113      15.4361       15.394       15.438            0            0            0   -1915.4687   -634.81242    88.553429    54.423589   -4531.9336    4295.8515 
  136000    3668.4289    302.41333    4550.5638    264.12095   -745.77989   -481.65894   -238.20254    21.287406    4676.3993   -1344.4489    73.504993    123.67127    401.49279            0    598.66905   -6042.1356   -33.444113      15.4361       15.394       15.438            0            0            0    21.282238   -2677.1971   -5424.6925    1959.3568    3563.9126     8128.422 
  137000    3668.4289    262.70927   -2725.5094    229.44432   -730.58653    -501.1422    -646.9577   -21.736593    4723.5108   -1345.1492     95.01941    110.04979    409.49347            0    614.56268   -6046.9234   -33.444113      15.4361       15.394       15.438            0            0            0    252.45011   -3587.3111   -350.50969   -963.83473   -5999.3595   -1213.3338 
  138000    3668.4289    269.05116    3089.8301    234.98319   -710.32883   -475.34564   -310.03889   -6.5884848    4738.1898   -1311.9205    84.988062    114.95804     401.6456            0     601.5917   -6043.5219   -33.444113      15.4361       15.394       15.438            0            0            0    872.04093   -1276.1431   -1022.8827     5623.444    1052.1932    2593.8531 
  139000    3668.4289    298.68617   -65.737255    260.86573   -741.29582   -480.43009   -483.94705     2.246146    4689.9479    -1350.991    89.712027    123.89318    396.08994            0    609.69514    -6043.185   -33.444113      15.4361       15.394       15.438            0            0            0    2408.4895   -2429.3925     1099.665   -4359.4295    4274.4425   -112.22474 
  140000    3668.4289    297.36132    -1862.947    259.70864   -705.33344   -445.62479   -545.29297    38.242643    4654.6729   -1346.5133    103.23831    137.78824    400.15336            0    641.17991   -6039.4289   -33.444113      15.4361       15.394       15.438            0            0            0    6931.0797   -674.74404    747.66408   -6008.7264   -896.32642    1316.2118 
  141000    3668.4289    281.07513   -81.194024    245.48465   -712.07811   -466.59346   -470.93736    22.811484    4687.2283   -1330.0487     94.95586    119.89862    403.11611            0    617.97059   -6040.0885   -33.444113      15.4361       15.394       15.438            0            0            0    538.73541   -642.49039     5330.729   -3197.6835    -290.8624    3244.9638 
  142000    3668.4289    307.18874    -1828.088    268.29168   -727.86947   -459.57778   -557.38099   0.80937139    4690.2138   -1351.1659     90.03985    125.91676    407.33986            0    623.29647   -6042.1891   -33.444113      15.4361       15.394       15.438            0            0            0    1403.6871     597.8259    2056.3433   -1574.8886   -1813.8122   -2095.5632 
  143000    3668.4289    275.61401   -209.97892    240.71503   -700.18641   -459.47138   -470.70531   -9.4903948    4745.0409    -1308.327    98.943109    97.862373    411.33509            0    608.14058   -6043.8775   -33.444113      15.4361       15.394       15.438            0            0            0    4776.4353   -324.44108   -268.10676   -1992.3556    1532.2033   -169.78447 
  144000    3668.4289    292.02817    575.38402    255.05079   -715.44228   -460.39149   -429.60829    14.054153    4698.0789   -1326.0421    83.743245    125.29533    401.56128            0    610.59985   -6038.1751   -33.444113      15.4361       15.394       15.438            0            0            0   -2846.0979   -3163.8607   -544.29611   -1990.6696    2454.1904    1262.6313 
  145000    3668.4289     321.7563    1507.5877    281.01466   -729.78122   -448.76657   -368.11021    13.645871    4680.0199   -1344.5331    76.203799    129.41894    409.12916            0     614.7519   -6038.1989   -33.444113      15.4361       15.394       15.438            0            0            0   -1982.5874   -905.58269    2920.5765    1968.8751    213.65616    2340.2319 
  146000    3668.4289    309.82937    2542.4825    270.59796   -705.49807   -434.90011   -298.87661    19.691294    4699.6288   -1323.5987    99.358382    116.32685    402.41545            0    618.10068   -6042.9189   -33.444113      15.4361       15.394       15.438            0            0            0   -921.78413    1804.5315    4200.3055     758.0771    2894.6221    3974.7483 
  147000    3668.4289    306.46244    1002.5369    267.65736   -737.66595    -470.0086    -416.3726    25.559602     4680.365   -1331.0675    78.061693    113.55957    401.78026            0    593.40153   -6036.9921   -33.444113      15.4361       15.394       15.438            0            0            0   -307.42676   -1325.1495    291.97348    6262.5514   -1783.8366    -1471.104 
  148000    3668.4289    292.08079   -1055.3278    255.09675      -715.07   -459.97326   -516.43358   -23.446631    4758.4586   -1311.7422    88.605343    106.94676    401.12013            0    596.67224   -6046.7542   -33.444113      15.4361       15.394       15.438            0            0            0   -2557.0173   -2137.8162    479.45141   -1905.0874    1912.0854   -3172.9814 
  149000    3668.4289    284.59873   -702.42313    248.56208   -722.30186   -473.73978   -511.31961   -15.338358    4716.5321   -1338.4696    84.398351     130.2846    401.48478            0    616.16772   -6039.6634   -33.444113      15.4361       15.394       15.438            0            0            0   -1225.9948    65.417724    1535.0066    4572.1017   -6460.1451   -219.22591 
  150000    3668.4289    282.98147   -4390.7906    247.14961    -712.9151   -465.76549   -700.67399   -20.869398    4732.2489   -1331.1887    95.797175    118.89545    403.58096            0    618.27358   -6042.5682   -33.444113      15.4361       15.394       15.438            0            0            0   -2907.9017   -1108.8791    35.680065   -3782.3872   -8180.5876   -1209.3971 
  151000    3668.4289    310.58788   -3603.4878    271.26042   -730.68455   -459.42413   -652.21171   -11.714491    4725.6711   -1328.7001    93.961246    98.714827    405.33947            0    598.01554   -6042.6567   -33.444113      15.4361       15.394       15.438            0            0            0   -1926.7779    2724.8683    1257.2433    -8275.049   -2451.8113     -83.6032 
  152000    3668.4289    303.61094   -4009.0066    265.16692    -718.7879   -453.62098   -668.10393    7.4820157     4698.575   -1336.0552    97.058217    127.38299    392.82605            0    617.26725   -6042.1122   -33.444113      15.4361       15.394       15.438            0            0            0   -5219.8243     103.1617    946.62007   -4076.4799   -1857.8083   -6092.7316 
  153000    3668.4289    316.85149    2466.8068    276.73091   -728.00031    -451.2694   -319.29456   -14.400439    4718.8301   -1336.1422      83.7344    115.76257    408.64496            0    608.14193    -6040.572   -33.444113      15.4361       15.394       15.438            0            0            0   -2410.4785   -1226.2389    6154.2622   -898.72071    6019.6671     2279.474 
  154000    3668.4289    296.37739    769.28224    258.84929   -722.32788   -463.47859   -422.32178    10.186816     4710.643    -1322.563    81.062328     117.1215    402.05133            0    600.23516   -6043.3929   -33.444113      15.4361       15.394       15.438            0            0            0    4330.9556      773.901    3255.3711    5906.8144   -4183.2903    584.32257 
  155000    3668.4289    303.37301     6649.183    264.95911   -719.63677   -454.67766   -98.944558    15.599113    4715.8138   -1312.9278    81.630718    111.15398    400.50632            0    593.29101   -6044.3407   -33.444113      15.4361       15.394       15.438            0            0            0   -2081.6361    4458.7567    460.69582    3320.1575    10819.365    5808.0268 
  156000    3668.4289    279.54758    549.93463    244.15052   -711.97984   -467.82932   -438.40767    33.184558    4678.3732   -1330.3236    96.524762    123.64031    398.17868            0    618.34375   -6041.8814   -33.444113      15.4361       15.394       15.438            0            0            0    3184.6088    -543.2526    2570.6135   -2123.1499    1206.6268     2566.327 
  157000    3668.4289    300.88412    1118.1291    262.78537   -744.89232   -482.10695   -422.28673   -6.5111652    4720.8332   -1325.2422    73.739277    108.43172    398.17884            0    580.34984   -6039.5642   -33.444113      15.4361       15.394       15.438            0            0            0    3867.5375    2010.9614     890.3049   -1996.4669    3140.0342    2210.8202 
  158000    3668.4289     292.4636    1083.7389    255.43108   -733.97357   -478.54248   -420.56216    19.377341    4681.3673   -1341.2399    77.526198    125.00588    404.73426            0    607.26634   -6041.9845   -33.444113      15.4361       15.394       15.438            0            0            0   -1213.4652     3263.203    2216.6256   -628.75463    -1338.076    5218.0475 
  159000    3668.4289    278.56163    6438.6106    243.28941   -727.67499   -484.38558   -139.91816    36.260371    4680.4745   -1327.4195    80.928858    113.30742    405.50821            0    599.74449   -6044.1543   -33.444113      15.4361       15.394       15.438            0            0            0   -1133.1389    270.35959   -1235.6925    6633.3594    2862.6184    9819.8541 
  160000    3668.4289    285.46592    3270.3705    249.31947    -733.8471   -484.52763   -309.56192    17.982161     4672.437   -1353.1688    74.153981    141.33779    403.82994            0    619.32171    -6043.588   -33.444113      15.4361       15.394       15.438            0            0            0   -486.98578     2092.575   -6213.2215   -589.81024    2866.4525    7534.4692 
  161000    3668.4289    293.31517   -2407.0562    256.17483   -719.32417   -463.14934   -591.92751   -6.0958464    4723.4289   -1324.4444    90.226907    113.99098     400.9023            0    605.12019   -6041.7774   -33.444113      15.4361       15.394       15.438            0            0            0   -4442.8381    3633.4891   -194.22627   -1613.7058    -7644.409    2036.9462 
  162000    3668.4289    277.69764    2077.0872    242.53483   -706.34886   -463.81403    -352.6893   -3.1626066    4737.5771   -1306.4997    84.383793    113.19824    402.56878            0    600.15082   -6040.9142   -33.444113      15.4361       15.394       15.438            0            0            0    1058.6174   -1365.0558    3062.7928    3996.4296    180.74414     2054.088 
  163000    3668.4289    294.58712    1270.2358    257.28572   -719.31777   -462.03205   -394.07409   -4.5417107    4721.2782   -1327.1518    84.292285    126.42222    397.11956            0    607.83407   -6043.8883   -33.444113      15.4361       15.394       15.438            0            0            0    -3516.144    2325.4165   -2658.8143   -413.13063    238.07615    3985.7619 
  164000    3668.4289    290.11101   -2406.3857    253.37639   -744.46045   -491.08406   -619.82635    7.0717624      4689.86   -1346.1834    93.194269    104.72706    403.80162            0    601.72295   -6043.1152   -33.444113      15.4361       15.394       15.438            0            0            0    4696.8794    -2776.681    787.10715   -2104.8613    604.59381   -5718.8896 
  165000    3668.4289    291.79066   -391.86573    254.84335   -757.33672   -502.49337   -523.45829    13.272629    4687.3087   -1344.9501    74.241238    108.44546    404.92668            0    587.61338   -6045.5314   -33.444113      15.4361       15.394       15.438            0            0            0    -561.3583    268.22449   -2536.1415    293.84271   -3949.4158    2479.9759 
  166000    3668.4289    303.19749   -1630.7142    264.80582   -738.16715   -473.36133   -560.60498    2.7796063      4702.04   -1341.4356     87.89393    114.05413     401.3204            0    603.26847   -6046.2552   -33.444113      15.4361       15.394       15.438            0            0            0   -8.7312395   -4736.9641    868.72808   -6600.2809    1232.7417    475.39672 
  167000    3668.4289    307.99642   -2183.4446    268.99709   -751.58575   -482.58866   -599.40354    12.417119    4673.9511   -1359.8626    89.750049    114.68394    403.84288            0    608.27687   -6046.2308   -33.444113      15.4361       15.394       15.438            0            0            0    507.89533   -2542.8448    3793.9365   -634.24357   -2861.5339   -3054.5562 
  168000    3668.4289    322.60544     4791.904    281.75628   -733.65248    -451.8962   -195.52803   -7.4287777    4728.4559   -1322.3944    77.560527    110.07478     401.1066            0    588.74191   -6043.4215   -33.444113      15.4361       15.394       15.438            0            0            0    1574.2084   -2102.5284   -575.31125    6172.3713     5546.534    2656.8066 
  169000    3668.4289    291.99778   -2202.6124    255.02425   -703.89866   -448.87441   -566.71477    10.673325    4686.4359   -1346.2963    102.55896    137.17936    402.65937            0    642.39768   -6043.4055   -33.444113      15.4361       15.394       15.438            0            0            0    -1876.628    -1500.473   -1279.0838    3286.4988   -4197.2126   -5697.1233 
  170000    3668.4289    306.28079   -3806.2358     267.4987   -731.90464   -464.40594   -668.04059    1.8362494    4710.7932   -1333.1901    85.637508    118.19061    397.45738            0     601.2855   -6045.8196   -33.444113      15.4361       15.394       15.438            0            0            0    168.96674    4581.4423    147.05862   -1612.1117   -4525.3944   -5281.2013 
  171000    3668.4289    274.87151    3335.5741    240.06655   -748.28006   -508.21351   -329.75938    10.066034    4687.7871    -1344.466    91.678937    110.22692    394.28011            0    596.18596   -6042.3191   -33.444113      15.4361       15.394       15.438            0            0            0    3375.3619   -3554.1201    1782.9772    3620.5566    2939.2974    3446.8684 
  172000    3668.4289    288.85406   -832.79608    252.27859   -714.72503   -462.44643   -507.00125    23.606642     4671.402   -1341.2313    93.703472    135.42183    397.38098            0    626.50628     -6036.24   -33.444113      15.4361       15.394       15.438            0            0            0   -1796.7186    1795.3803   -2431.0993    1816.3847    119.91019   -4434.6831 
  173000    3668.4289    296.83186    1336.7511    259.24622   -738.16001   -478.91379   -407.39724   -2.1632659    4695.5187   -1353.0744    81.918313      132.828    400.16807            0    614.91438   -6046.4299   -33.444113      15.4361       15.394       15.438            0            0            0    118.94611    581.41262   -5.5252995    1883.4441     4641.253   -2514.4438 
  174000    3668.4289    296.71622   -2113.0704    259.14522   -757.02163   -497.87641   -610.92624   -3.5724655    4676.0202   -1375.1025    91.484461     127.8212    398.77519            0    618.08086   -6047.5502   -33.444113      15.4361       15.394       15.438            0            0            0   -654.01709     41.69553   -132.81009   -3966.8571   -2612.5608    240.20684 
  175000    3668.4289    303.04013    1100.7346    264.66838   -714.33215   -449.66377   -390.77416  -0.43851286    4719.0685   -1319.1262    83.937254    117.55076    403.30608            0     604.7941   -6037.7563   -33.444113      15.4361       15.394       15.438            0            0            0    1161.3789   -116.31378    -2477.873    1015.0535    206.31465    2080.8357 
  176000    3668.4289    289.88261   -441.94345    253.17691   -723.86501   -470.68811    -494.3322    10.860708    4702.9133   -1326.5023     84.38243    117.71262    400.54227            0    602.63732   -6040.2764   -33.444113      15.4361       15.394       15.438            0            0            0    475.41167    2350.2496    5413.1635   -1535.4138    1180.5206   -970.93711 
  177000    3668.4289    309.83509    2371.2421    270.60295   -720.75633   -450.15338   -323.29128    14.231285    4679.8017   -1346.8803    100.22152    122.00102    403.90146            0      626.124   -6040.9133   -33.444113      15.4361       15.394       15.438            0            0            0   -1253.9085    2654.2921   -49.677385    3216.5577    1971.6651    1925.5036 
  178000    3668.4289    313.74779   -741.51071    274.02021   -735.67541    -461.6552   -501.32623    2.2249503    4704.6744   -1333.9666    90.295184    108.19163    399.80438            0     598.2912    -6040.866   -33.444113      15.4361       15.394       15.438            0            0            0    3025.5662    -1626.684    2964.9024   -5047.0736   -531.00648     3353.548 
  179000    3668.4289    304.68705   -730.97618    266.10677   -726.08122   -459.97445   -499.08188    8.3451056    4709.5017   -1324.8613    104.37277    101.80733        392.6            0     598.7801   -6042.7081   -33.444113      15.4361       15.394       15.438            0            0            0   -728.10089   -6598.0637   -8676.6451   -1604.4653    3431.7892   -4020.2524 
  180000    3668.4289     286.2638    3988.9941    250.01632   -776.14759   -526.13127     -312.719    11.793335    4684.2154     -1346.26    72.168586    100.41868    397.52516            0    570.11243   -6042.2687   -33.444113      15.4361       15.394       15.438            0            0            0   -4272.9636    935.91159    91.273065    3943.9967     6357.433    1665.5525 
  181000    3668.4289    316.43757    4226.7074     276.3694   -715.30766   -438.93825   -212.80826   -3.7413341    4743.2957   -1302.8356    81.094981    108.98115     397.4518            0    587.52794     -6042.39   -33.444113      15.4361       15.394       15.438            0            0            0    5368.5511   -2436.6278    1361.0341    7969.7519    4887.9897   -177.61941 
  182000    3668.4289    318.19857    358.95212    277.90742   -723.43867   -445.53125   -426.32721    17.772246     4690.232   -1337.9504    96.225942     118.6678    399.61801            0    614.51176   -6045.9547   -33.444113      15.4361       15.394       15.438            0            0            0    2646.8745    822.17844   -665.23049    2958.6608    1557.9842   -3439.7886 
  183000    3668.4289    280.20063   -4515.2524    244.72088    -728.4083   -483.68742   -725.25465    22.650964     4663.007   -1357.0254    109.13837    119.36128    400.11741            0    628.61706   -6042.6833   -33.444113      15.4361       15.394       15.438            0            0            0   -3698.5232    1199.4672    1630.9691   -2706.6326   -2225.5474   -8613.5772 
  184000    3668.4289    318.78854   -349.84785    278.42269    -722.8454   -444.42272   -463.13967    3.7810974    4696.4172   -1345.6673    93.188021     132.3776    397.25625            0    622.82187   -6045.8656   -33.444113      15.4361       15.394       15.438            0            0            0   -1233.3005   -2187.9064    1210.0683     3432.683    -7116.847    2634.6204 
  185000    3668.4289     284.0026    -3171.472    248.04143   -707.10282   -459.06139     -628.736    -6.245805    4719.3006   -1334.1732    98.786347    122.84067    405.44332            0    627.07034   -6047.2279   -33.444113      15.4361       15.394       15.438            0            0            0    1258.4818   -1457.7414    2809.0173    -3180.573   -1750.5656   -4583.2775 
  186000    3668.4289    313.08953   -1391.7572     273.4453   -757.46627   -484.02097   -558.48036   -5.4777521    4707.7365   -1338.9872    78.909996    104.81517    397.79577            0    581.52094   -6041.2459   -33.444113      15.4361       15.394       15.438            0            0            0    1152.9414   -1477.7153    139.85528   -493.53113   -5130.3045     1448.564 
  187000    3668.4289    329.54679   -125.79194     287.8187   -725.19717   -437.37848   -444.10838    11.996232    4703.9478   -1328.8428    85.410363    118.71415    399.52116            0    603.64567   -6044.7869   -33.444113      15.4361       15.394       15.438            0            0            0   -41.848621   -1221.0937   -2050.1963   -5006.4736    45.015864    4584.0819 
  188000    3668.4289    290.63801     3927.346    253.83666   -717.67988   -463.84323   -253.72915   -2.0159575    4707.0513   -1337.8546    87.668847    126.74952    405.75639            0    620.17475     -6042.89   -33.444113      15.4361       15.394       15.438            0            0            0    13.462241    1377.3933   -2454.5941    4066.8885    2533.0423    5182.1073 
  189000    3668.4289    299.54726   -375.34153    261.61779   -723.45931   -461.84152    -481.9224    25.851173    4680.7411   -1335.6113    97.024232    118.74395    396.38382            0      612.152   -6042.2036   -33.444113      15.4361       15.394       15.438            0            0            0    1165.2971    3181.5815   -387.34747     378.2382   -238.80248   -1265.4603 
  190000    3668.4289    291.17287    2400.6843    254.30379   -751.85864   -497.55485   -369.11758    3.6379976    4666.8002   -1374.8023     88.42601    133.02104    401.49665            0    622.94371   -6045.2405   -33.444113      15.4361       15.394       15.438            0            0            0    1026.6665   -86.117323   -590.66388    4187.9682   -1371.2259    4385.3106 
  191000    3668.4289     311.5272    3293.1017     272.0808   -724.03395   -451.95315   -275.77132    26.991776    4683.6992    -1332.323    84.610146    117.33715    406.34172            0    608.28901   -6043.0139   -33.444113      15.4361       15.394       15.438            0            0            0    3768.3519   -3440.7462   -487.05506    616.20855    2588.7062    6674.3902 
  192000    3668.4289    304.30483   -2833.0901    265.77294   -707.41384   -441.64089   -593.21198   -1.7319942    4731.3196   -1315.1627    91.961258    114.56825    401.21932            0    607.74883   -6044.7503   -33.444113      15.4361       15.394       15.438            0            0            0     2841.757   -6020.2544   -2147.0649    63.593163   -3930.8409   -4632.0224 
  193000    3668.4289    301.81029   -835.02857    263.59427   -728.07298   -464.47871   -509.15297   -12.177558    4738.7466   -1315.8708    88.944055    96.364674    402.48907            0     587.7978   -6042.4399   -33.444113      15.4361       15.394       15.438            0            0            0   -2288.3687   -1576.1374   -2774.6641   -2145.0015   -3275.8456    2915.7614 
  194000    3668.4289    303.24802    246.27578    264.84995   -733.62547   -468.77551   -455.59969   -8.3003674    4713.5643    -1336.503    92.768778    109.97859    400.13019            0    602.87756    -6041.767   -33.444113      15.4361       15.394       15.438            0            0            0     2377.698   -2355.5979    755.58549    3483.1354    908.56073   -3652.8688 
  195000    3668.4289    303.25108   -2444.8792    264.85262    -718.9298   -454.07717   -584.87887    1.2147065    4715.0416   -1329.3284    94.659967    108.86063    406.87797            0    610.39857   -6045.5847   -33.444113      15.4361       15.394       15.438            0            0            0   -1383.1418   -1251.8028    -3074.542   -10839.859   -2542.1854    6047.4067 
  196000    3668.4289    309.75843    5424.9867    270.53599   -734.98916   -464.45317    -174.2149    22.238193    4679.4867    -1342.994    83.997695    118.43202    405.57515            0    608.00486    -6044.719   -33.444113      15.4361       15.394       15.438            0            0            0    217.47232    233.14802   -3440.1431    6338.2526    5664.0869    4272.6206 
  197000    3668.4289    330.35838    604.14185    288.52752   -708.22614   -419.69862   -387.37686     7.060392    4705.9783   -1331.1375    93.582389    122.40947    406.91953            0    622.91139   -6044.1762   -33.444113      15.4361       15.394       15.438            0            0            0      2845.05   -357.93305   -5953.3078     3136.071   -5292.1684     3968.523 
[...]
 9955000    3668.4289    282.69749    -975.2776    246.90159   -737.06391   -490.16232   -542.33994   -5.0399785    4719.2221   -1327.3731    77.233197    117.64047    395.43554            0    590.30921   -6041.5552   -33.444113      15.4361       15.394       15.438            0            0            0    2229.2944    1824.1417    548.57799   -1866.9145   -2097.8339    1038.9156 
 9956000    3668.4289    293.15593   -5936.9016    256.03575    -726.0835   -470.04775    -787.6736   -4.9041723    4685.8325    -1361.434    110.57201    130.20901    394.56946            0    635.35048   -6042.3623   -33.444113      15.4361       15.394       15.438            0            0            0    3645.1484   -2137.7382    2287.4885   -6050.5382   -5771.8131   -5988.3535 
 9957000    3668.4289    318.96906    1748.5579    278.58035   -734.88515    -456.3048   -362.75648    30.109321    4652.3159   -1353.6857    80.252722    136.69979      401.848            0    618.80051   -6036.1109   -33.444113      15.4361       15.394       15.438            0            0            0   -776.10354   -1551.9596   -731.77279    1349.7222    293.37447     3602.577 
 9958000    3668.4289    277.26604   -920.69533    242.15788   -711.83689   -469.67902   -518.93647    1.6994185    4697.9073   -1340.6676    90.381994    137.13317    401.31559            0    628.83075   -6040.2744   -33.444113      15.4361       15.394       15.438            0            0            0    338.14092    4653.3252    1850.5034   -4411.5139    2403.8438   -754.41586 
 9959000    3668.4289    301.67672   -1447.9661    263.47761   -726.22396   -462.74635   -540.21293   -7.2054468    4705.5483   -1345.1604    95.925884    124.61985    398.39068            0    618.93642   -6043.5032   -33.444113      15.4361       15.394       15.438            0            0            0    4562.5828   -1601.0352   -679.60296   -2032.3727   -6514.6924    4203.1667 
 9960000    3668.4289    274.02078    4273.8878    239.32354   -723.76332   -484.43978   -255.78561    31.540725    4669.9482   -1338.0201     83.85114    133.19712    397.20853            0    614.25679    -6039.509   -33.444113      15.4361       15.394       15.438            0            0            0   -1197.1506    2108.9474    -1087.518    6810.3942   -283.40543    6294.6747 
 9961000    3668.4289    287.67314    2005.3514     251.2472   -715.30599   -464.05878   -356.77194    30.846597    4684.9342   -1320.5402     84.84258    118.24279    402.14883            0    605.23421    -6036.321   -33.444113      15.4361       15.394       15.438            0            0            0   -1403.6528   -248.78572   -1297.5568    5431.1673   -137.23145    722.11821 
 9962000    3668.4289    295.67012   -1595.8289    258.23159    -712.7477   -454.51611   -539.89339     11.20389    4685.6326   -1338.1315    99.735751    119.70318    405.94487            0    625.38379    -6034.968   -33.444113      15.4361       15.394       15.438            0            0            0    2474.5646    1883.9758   -2259.2629   -2937.8948   -3120.8622    1271.2703 
 9963000    3668.4289    333.66087     4108.549    291.41185   -703.97757   -412.56572   -192.75724    28.037993    4684.9172   -1326.8114    86.583286    133.40564    402.84493            0    622.83385   -6039.7666   -33.444113      15.4361       15.394       15.438            0            0            0    29.123241    2888.6641      2862.53    6299.4993    -108.3746    6134.5223 
 9964000    3668.4289    305.07735     -4417.36    266.44765   -731.62746   -465.17981   -701.50977     3.014169    4707.3068   -1332.9521    84.379063    121.43801    395.50758            0    601.32465   -6043.2731   -33.444113      15.4361       15.394       15.438            0            0            0    70.775448   -1297.0939    221.34638   -8303.6672   -3987.1309   -961.28193 
 9965000    3668.4289    299.58341    3085.5925    261.64936   -706.64512   -444.99576   -279.91572   -5.3031749    4712.3816   -1335.3859    89.569642    143.97945    395.19171            0     628.7408   -6042.4644   -33.444113      15.4361       15.394       15.438            0            0            0    1201.0866   -3899.5475    5330.2633    4688.6397    1059.5876    3508.5503 
 9966000    3668.4289    295.63328   -2183.7597    258.19941   -734.49937   -476.29997   -593.13171   -6.7808339    4707.7378   -1343.3109    83.107199    126.31551    399.38883            0    608.81154   -6044.2679   -33.444113      15.4361       15.394       15.438            0            0            0    1967.3853    27.359247    3236.8334   -1908.0154   -2725.4853   -1917.7785 
 9967000    3668.4289    302.84515    1282.7223    264.49809   -747.00526   -482.50717   -413.88117   -9.2033078    4707.2574   -1347.8119    77.456234    126.81214    396.53831            0    600.80668    -6045.866   -33.444113      15.4361       15.394       15.438            0            0            0    1376.0321   -2857.0769     100.8736   -73.127477    -64.31355    3985.6079 
 9968000    3668.4289    309.11693   -3446.2243    269.97572   -710.65887   -440.68315   -625.05709    -7.835261    4718.9143   -1332.8529    102.05677    112.91291    407.22433            0    622.19401    -6043.932   -33.444113      15.4361       15.394       15.438            0            0            0   -2554.5759    2010.5698   -2025.5993   -5591.0833   -2762.6062   -1984.9834 
 9969000    3668.4289    283.75911    228.96493    247.82878   -723.71358    -475.8848   -463.63511   -15.148895    4714.6754   -1344.1004    77.129504    141.12571    402.13158            0    620.38679   -6043.6269   -33.444113      15.4361       15.394       15.438            0            0            0    1507.7691    3764.7947    1339.9912    5014.0594   -267.62096   -4059.5436 
 9970000    3668.4289    311.67944   -2798.8584    272.21376   -733.81898   -461.60522    -611.3449   -2.7667683    4686.7633   -1361.7386    87.084378    138.49589    402.33931            0    627.91958   -6045.7351   -33.444113      15.4361       15.394       15.438            0            0            0   -1264.0963    6867.1034   -2685.2099   -4038.6549   -5089.5931    731.67284 
 9971000    3668.4289    307.05209    2137.5892    268.17234   -718.86796   -450.69563   -336.33402   -10.051398    4733.1669     -1320.03    87.656885    114.81336     398.6918            0    601.16204   -6043.1455   -33.444113      15.4361       15.394       15.438            0            0            0    443.02448     167.0656   -4550.4788    548.06292    4568.2615    1296.4431 
 9972000    3668.4289     291.1475   -5601.0169    254.28163   -732.38195   -478.10032   -777.75624    33.609314    4666.1327   -1343.5325    93.200083    116.62555     401.3249            0    611.15054   -6043.2745   -33.444113      15.4361       15.394       15.438            0            0            0    1867.9457   -1137.2993   -476.74731   -6361.7839   -1371.2819   -9069.9848 
 9973000    3668.4289    300.17776   -944.80008    262.16845   -737.99679   -475.82834    -526.3754    8.9126673    4694.6484   -1342.1371    88.544639    118.76502    396.83068            0    604.14034   -6045.6982   -33.444113      15.4361       15.394       15.438            0            0            0    2283.3474   -393.22146     2479.327    -2634.262   -1898.2265    1698.0882 
 9974000    3668.4289    302.38518    1987.7395    264.09636   -739.06635   -474.96998   -368.62538    2.9339296    4704.2572   -1327.0279    78.595579    111.53422    397.83175            0    587.96155    -6034.219   -33.444113      15.4361       15.394       15.438            0            0            0    134.94942   -2784.0121    2482.9892    861.34434    1495.6364    3606.2378 
 9975000    3668.4289    276.03883    3943.1615    241.08606   -735.41949   -494.33343   -283.37322    16.946852     4679.359   -1347.2249    89.043405     117.2888    405.47325            0    611.80546   -6043.5308   -33.444113      15.4361       15.394       15.438            0            0            0   -5617.7088   -2138.8262   -4119.6773    8967.3528    1860.3302    1001.8015 
 9976000    3668.4289     282.5697     1147.141    246.78998   -727.56415   -480.77417   -419.40182    15.058457    4688.2913   -1339.3238    79.813213     125.6786    406.26779            0    611.75961   -6042.6735   -33.444113      15.4361       15.394       15.438            0            0            0    5028.1014    1567.5542   -2694.3964    2312.8326   -1964.6311    3093.2215 
 9977000    3668.4289     274.0348    534.68387    239.33578   -737.76944   -498.43365   -469.82792    17.826575    4673.5352    -1350.457    76.283679    133.63331    402.77062            0    612.68761   -6041.8189   -33.444113      15.4361       15.394       15.438            0            0            0    3991.6718   -1610.6042    4038.6411     142.1279    6457.1746   -4995.2509 
 9978000    3668.4289    272.52612   -3910.0962    238.01814   -722.71093   -484.69279     -693.884    11.583484    4681.5873   -1349.5623    97.347622    123.84249    405.66128            0    626.85139   -6042.7331   -33.444113      15.4361       15.394       15.438            0            0            0    2908.3208   -1563.1465    2502.3922    2650.4784   -5625.6512   -8755.1158 
 9979000    3668.4289    268.76375    3145.6448    234.73217   -706.92275   -472.19058   -303.89773    11.121168    4703.3333   -1327.3039     90.06341    127.88486    402.43289            0    620.38116   -6041.7584   -33.444113      15.4361       15.394       15.438            0            0            0    2590.8471   -2307.2181    2308.1071     3603.673    3091.4984     2741.763 
 9980000    3668.4289    268.97855   -304.67598    234.91977    -716.3404   -481.42063   -497.72088    26.499303    4674.8415   -1342.5256    98.626942    125.53495    402.02326            0    626.18516   -6043.8664   -33.444113      15.4361       15.394       15.438            0            0            0   -293.14487    2284.3146    5817.8712   -293.10152    674.23303   -1295.1595 
 9981000    3668.4289    296.61845   -791.65422    259.05983   -738.27303    -479.2132   -521.56692   -10.644225    4702.9757   -1348.7349     78.13898    132.02038    400.30249            0    610.46186   -6041.0663   -33.444113      15.4361       15.394       15.438            0            0            0    2486.1419   -1824.6626   -116.74326   -103.97866   -2903.7542    632.77021 
 9982000    3668.4289    295.58012   -890.74184    258.15298   -731.66476   -473.51178   -521.16671   -22.814406     4717.689   -1346.8293     95.26882    121.53958    398.35619            0    615.16459   -6041.7039   -33.444113      15.4361       15.394       15.438            0            0            0    2959.6204   -500.62294   -1557.6514   -426.48285   -624.04115   -1621.7015 
 9983000    3668.4289    291.56129   -1313.3501    254.64302   -722.61788   -467.97486   -538.23945   -16.192431    4700.1114   -1359.9777    96.411182    141.68278     399.2659            0    637.35986   -6043.8967   -33.444113      15.4361       15.394       15.438            0            0            0    809.35463    104.11662    4089.0259   -2202.3698   -3076.6243    1338.9438 
 9984000    3668.4289    263.70916    2213.0531    230.31761   -725.89039   -495.57278   -377.17384   -4.3933987    4717.4157   -1327.1461    77.617714    123.06123    400.57675            0     601.2557   -6040.1683   -33.444113      15.4361       15.394       15.438            0            0            0   -3192.4325    3267.4474    906.19198    2495.5608    285.24069    3858.3577 
 9985000    3668.4289    291.20268    777.17014    254.32982   -719.28714   -464.95732   -423.37851    -2.075634     4720.475   -1322.3946    84.809025    117.85451    400.44391            0    603.10744    -6040.794   -33.444113      15.4361       15.394       15.438            0            0            0    2542.6431   -608.79863   -2294.6683     1240.182   -6020.5673    7111.8957 
 9986000    3668.4289    297.31213    2524.0603    259.66568   -712.51679   -452.85111    -317.8132    25.937851    4669.6087   -1346.3315    93.556325    138.77626    401.48213            0    633.81472   -6041.8781   -33.444113      15.4361       15.394       15.438            0            0            0    2399.6564   -1090.5616   -8409.3984    2591.1516    6886.8608   -1905.8315 
 9987000    3668.4289    284.78016   -3593.7431    248.72054   -696.68336   -447.96282   -640.22906   -2.0313477    4718.9513   -1324.2804    93.954141    131.01875    402.62415            0    627.59704   -6041.2004   -33.444113      15.4361       15.394       15.438            0            0            0   -1045.9895    1258.2799   -1192.6556    961.42499   -6984.6711   -4757.9833 
 9988000    3668.4289    295.26558   -3968.1404    257.87827   -741.12659   -483.24832   -695.54491   -20.125413    4706.2895   -1354.2065    96.266902    116.70364    400.10936            0     613.0799   -6040.3706   -33.444113      15.4361       15.394       15.438            0            0            0     2485.604     2170.436     1515.509   -151.23995   -1975.2231    -9777.958 
 9989000    3668.4289    308.45447   -238.87296    269.39714   -721.11466   -451.71752   -464.49729    20.963769    4663.4423   -1355.5639    92.198924    139.37006    402.88027            0    634.44925     -6039.97   -33.444113      15.4361       15.394       15.438            0            0            0    2298.5061   -326.66821     4602.817   -2481.5571    4803.4556   -3038.5173 
 9990000    3668.4289    287.01943   -2858.5552    250.67627   -747.85023   -497.17396   -650.10744   -2.4751208    4706.5206   -1337.9329    79.149163    112.13384    398.79961            0    590.08262   -6041.9784   -33.444113      15.4361       15.394       15.438            0            0            0    693.41102   -1534.9231    2443.6148   -4558.3075   -1242.8174   -2774.5406 
 9991000    3668.4289    288.34721   -1321.6208    251.83592   -734.13307   -482.29715   -553.00422   -22.998221    4728.1313   -1339.2079    91.468519    109.53689    404.06943            0    605.07483    -6044.341   -33.444113      15.4361       15.394       15.438            0            0            0    -725.3357    842.47775    1038.2247    1900.7345   -3435.1733   -2430.4235 
 9992000    3668.4289    285.08655    6570.5391    248.98813   -719.17133    -470.1832   -118.65757   -3.7497153    4717.2759   -1326.3065    80.063765    127.03056    400.04088            0    607.13521   -6039.8327   -33.444113      15.4361       15.394       15.438            0            0            0    630.83872   -2500.6175    3260.9703    5445.7892    11337.099    2928.7293 
 9993000    3668.4289    304.16648   -3183.3188    265.65212   -735.92286   -470.27074   -640.57917   -12.329028      4700.29   -1354.4426    92.021519    126.03856    400.45967            0    618.51974   -6042.4036   -33.444113      15.4361       15.394       15.438            0            0            0   -1511.6804    1808.4279    7658.6322   -1886.7915   -8726.2318    1063.0669 
 9994000    3668.4289    293.03554   -589.36189     255.9306   -732.91193   -476.98133   -508.51235   -2.2962847    4688.5246   -1359.1946    87.255973    141.38063    397.64605            0    626.28265   -6045.4229   -33.444113      15.4361       15.394       15.438            0            0            0    3176.7636   -3397.9199    450.16164    208.93402   -378.84433   -1598.1754 
 9995000    3668.4289    281.74862    1016.4905    246.07287   -707.06942   -460.99656   -406.61404  -0.13638022    4719.7701   -1319.7387    94.275334    114.90369    403.49022            0    612.66925   -6039.3724   -33.444113      15.4361       15.394       15.438            0            0            0    4550.4423    1053.3135   -1233.9138    -1187.613     834.8462    3402.2384 
 9996000    3668.4289    298.04383   -1157.5648    260.30473   -722.07728   -461.77255   -523.70258   -22.371602    4731.1849   -1333.2039    88.353836    128.19366    394.57914            0    611.12663   -6042.0173   -33.444113      15.4361       15.394       15.438            0            0            0    2195.2773    2901.6495   -3004.7854   -1251.1847   -3777.5325    1556.0227 
 9997000    3668.4289    288.59159   -3251.6283    252.04936   -708.61115    -456.5618    -630.5248    6.0109475     4707.364   -1325.8059    96.180027    123.60791    397.40685            0    617.19478   -6039.1809   -33.444113      15.4361       15.394       15.438            0            0            0   -3261.3794   -788.39629    2011.6442   -1199.0492   -980.58349   -7575.2523 
 9998000    3668.4289    301.08813    205.80682    262.96355   -759.65724   -496.69369   -485.68297   -5.7936315    4688.6963   -1361.5366    83.430351    119.77082    398.67817            0    601.87934   -6044.4392   -33.444113      15.4361       15.394       15.438            0            0            0   -2079.7299    2028.8738     -2646.32   -786.44841   -2539.6249    3943.4938 
 9999000    3668.4289    303.99988   -562.51544    265.50661   -719.65723   -454.15062   -484.24535    19.235597    4690.0153   -1334.4628    87.272861    124.21293    403.31975            0    614.80554   -6043.7137   -33.444113      15.4361       15.394       15.438            0            0            0    1567.8248   -4728.5849   -2139.8079   -4534.2366    682.99523    2163.6951 
10000000    3668.4289    309.01377    2690.9475    269.88563   -744.01975   -474.13413    -330.1677    20.966542    4705.2576   -1317.4681    71.629545    100.19191    401.62685            0     573.4483   -6043.6922   -33.444113      15.4361       15.394       15.438            0            0            0   -863.44847    1313.3901    1275.2008    2310.3655    4818.3861    944.09097 
Loop time of 5338.75 on 4 procs for 10000000 steps with 294 atoms

Performance: 161.836 ns/day, 0.148 hours/ns, 1873.097 timesteps/s
94.0% CPU use with 4 MPI tasks x 1 OpenMP threads

MPI task timing breakdown:
Section |  min time  |  avg time  |  max time  |%varavg| %total
---------------------------------------------------------------
Pair    | 1387.3     | 1527.5     | 1671.9     | 318.1 | 28.61
Bond    | 121.31     | 126.06     | 129.73     |  27.3 |  2.36
Kspace  | 2660.1     | 2792.1     | 2918.1     | 225.6 | 52.30
Neigh   | 141.51     | 142.16     | 142.79     |   4.8 |  2.66
Comm    | 622.03     | 631.83     | 638.92     |  29.2 | 11.83
Output  | 3.2093     | 3.2698     | 3.4368     |   5.3 |  0.06
Modify  | 41.666     | 45.818     | 50.892     |  60.7 |  0.86
Other   |            | 70.03      |            |       |  1.31

Nlocal:    73.5 ave 79 max 67 min
Histogram: 1 0 0 0 0 2 0 0 0 1
Nghost:    1706.5 ave 1722 max 1699 min
Histogram: 2 0 1 0 0 0 0 0 0 1
Neighs:    8946.75 ave 9512 max 8137 min
Histogram: 1 0 0 0 1 0 0 0 0 2

Total # of neighbors = 35787
Ave neighs/atom = 121.724
Ave special neighs/atom = 4.87755
Neighbor list builds = 338019
Dangerous builds = 0


write_restart   restart.${NAME}
write_restart   restart.mol
PPPM initialization ...
  using 12-bit tables for long-range coulomb (src/kspace.cpp:332)
  G vector (1/distance) = 0.383154
  grid = 12 12 12
  stencil order = 5
  estimated absolute RMS force accuracy = 0.0217689
  estimated relative force accuracy = 6.55565e-05
  using double precision KISS FFT
  3d grid and FFT values/proc = 3211 432
write_data	data.*
PPPM initialization ...
  using 12-bit tables for long-range coulomb (src/kspace.cpp:332)
  G vector (1/distance) = 0.383154
  grid = 12 12 12
  stencil order = 5
  estimated absolute RMS force accuracy = 0.0217689
  estimated relative force accuracy = 6.55565e-05
  using double precision KISS FFT
  3d grid and FFT values/proc = 3211 432
Total wall time: 1:28:59
