LAMMPS data file via write_data, version 3 Mar 2020, timestep = 10000000

294 atoms
8 atom types
226 bonds
5 bond types
275 angles
8 angle types
270 dihedrals
6 dihedral types

0.0000000000000000e+00 1.5793200000000001e+01 xlo xhi
0.0000000000000000e+00 1.5793200000000001e+01 ylo yhi
0.0000000000000000e+00 1.5793200000000001e+01 zlo zhi

Masses

1 6.941
2 16
3 19
4 12.01
5 32.06
6 14.01
7 16
8 1.008

Pair Coeffs # lj/cut/coul/long

1 0.0182661 2.126
2 0.209859 2.96
3 0.0609584 3.118
4 0.109326 3.4
5 0.249833 3.564
6 0.169886 3.25
7 0.155323 3.165
8 0 0

Bond Coeffs # harmonic

1 492.67 1.466
2 363.556 1.344
3 248.733 1.782
4 256.929 1.752
5 529.23 1.012

Angle Coeffs # harmonic

1 41.2526 108.48
2 45.27 121.88
3 43.0716 107.06
4 81.1647 109.67
5 71.2115 107.16
6 39.3938 103.12
7 109.646 119.18
8 37.9249 113.24

Dihedral Coeffs # charmm

1 0.143897 3 0 0
2 0.143897 3 0 0
3 0.499666 3 180 0
4 6.79545 1 180 0
5 0.499666 3 180 0
6 6.79545 1 180 0

Atoms # full

40 12 2 -4.6100000000000002e-01 3.2173083401015372e+00 3.8050013829388516e+00 7.5368484030154299e+00 -2 -1 -3
188 33 8 4.0999999999999998e-01 2.8675063799368994e+00 4.9718863289671091e+00 1.9005797877924395e+00 4 -2 12
4 4 1 8.0000000000000004e-01 1.2975309777360133e+00 3.4792282132912673e+00 6.6330914534365606e+00 -2 -2 2
213 41 8 4.0999999999999998e-01 4.3432474932028171e+00 6.7295693047033578e-01 4.8523142793371008e+00 -6 3 3
96 15 3 -1.3800000000000001e-01 2.0062262787952827e+00 6.4820102979730603e+00 7.0009287328799195e+00 -3 -2 1
211 41 7 -8.1999999999999995e-01 4.3060855439246604e+00 1.5625220021222335e+00 4.2087391328913100e+00 -6 3 3
104 16 2 -4.6100000000000002e-01 1.8370695552912897e+00 1.4289104690172945e+00 7.6235126705744980e+00 0 -3 -1
189 33 8 4.0999999999999998e-01 4.0118085485692205e+00 6.0710555705405156e+00 1.2641874608830268e+00 4 -2 12
232 48 7 -8.1999999999999995e-01 5.5850522411382408e-01 4.6113768499117116e+00 4.9417336468017483e+00 1 -1 6
112 16 3 -1.3800000000000001e-01 1.2272747159777708e+00 3.7450779578230578e-02 4.5992145750878519e+00 0 -3 -1
254 55 8 4.0999999999999998e-01 3.2571352592225811e+00 5.5435177550503543e+00 3.9903301762868559e+00 5 -6 -2
253 55 7 -8.1999999999999995e-01 3.7416351224403774e+00 5.0492688320390542e+00 4.6980937916705656e+00 5 -6 -2
182 31 8 4.0999999999999998e-01 2.4781807008901569e-01 4.1685804161849109e+00 2.3361246567559757e+00 -1 -3 -2
129 17 3 -1.3800000000000001e-01 7.4688886432425694e-01 1.6299812179665862e+00 1.7486314775403380e+00 3 1 -1
234 48 8 4.0999999999999998e-01 6.0202586141128289e-01 4.8569647901292887e+00 3.9733405540284124e+00 1 -1 6
212 41 8 4.0999999999999998e-01 4.0022738953954402e+00 1.1745361379065897e+00 3.3219211567500255e+00 -6 3 3
7 7 1 8.0000000000000004e-01 5.0231562835850658e+00 3.3775290792919441e+00 4.8452826554217543e+00 -5 -1 6
181 31 7 -8.1999999999999995e-01 9.4114016505569620e-01 4.9009595254074449e+00 2.1885209718254601e+00 -1 -3 -2
255 55 8 4.0999999999999998e-01 3.9766455263623079e+00 5.8187719840978316e+00 5.3669627267126803e+00 5 -6 -2
183 31 8 4.0999999999999998e-01 3.3236259407707913e-01 5.6597402036383881e+00 1.8675514315815098e+00 -1 -3 -2
187 33 7 -8.1999999999999995e-01 3.8900340488621010e+00 5.0890823587910514e+00 1.6043179889431449e+00 4 -2 12
98 15 4 3.1900000000000001e-01 1.3740696154520675e+00 7.6102167560627318e+00 7.4586220496364213e+00 -3 -2 1
263 58 8 4.0999999999999998e-01 5.2226238448395952e+00 4.5226932125280310e+00 8.4222774327793282e-01 3 -6 -1
157 23 7 -8.1999999999999995e-01 2.2718822855165004e+00 7.7143764937171948e+00 2.8459228726270975e+00 -3 -1 1
128 17 4 3.1900000000000001e-01 1.5635579663290249e+00 1.6806926263049959e+00 6.7476799365675122e-01 3 1 -1
166 26 7 -8.1999999999999995e-01 4.2204681285822767e+00 7.3514210794508301e+00 3.1136212038613792e-01 4 7 -5
124 17 5 9.1100000000000003e-01 2.6701907817162143e+00 1.6908312672027515e-01 5.8391944517205818e-01 3 1 -1
233 48 8 4.0999999999999998e-01 8.3286551848118506e-02 5.4104313531410302e+00 5.2902190060595844e+00 1 -1 6
127 17 3 -1.3800000000000001e-01 2.2240783566755171e+00 2.8125481145956530e+00 7.2615014663088540e-01 3 1 -1
125 17 2 -4.6100000000000002e-01 3.6941555396445716e+00 2.5855826834084378e-01 1.6696956047377030e+00 3 1 -1
158 23 8 4.0999999999999998e-01 1.4218792629242767e+00 7.5263469903461662e+00 2.3922837637819678e+00 -3 -1 1
21 10 3 -1.3800000000000001e-01 3.5499683958484241e-02 7.6309320555264888e+00 1.5646512626393161e-02 1 0 0
54 12 3 -1.3800000000000001e-01 9.5040583103862364e+00 4.6590787799492785e+00 7.4708954551924540e+00 -2 -1 -3
164 25 8 4.0999999999999998e-01 6.2256874655255245e+00 7.5091756652561132e+00 2.9308619297599727e+00 4 5 2
291 67 8 4.0999999999999998e-01 8.2335814034279800e+00 5.9080083147272306e+00 2.3696163463881121e+00 4 -7 2
53 12 4 3.1900000000000001e-01 8.2369103883184227e+00 4.9417576681177273e+00 7.2307133965824555e+00 -2 -1 -3
148 20 7 -8.1999999999999995e-01 8.8751426673273404e+00 4.2268316767048925e-01 5.3101555543950649e+00 -3 -1 2
46 12 6 -5.8799999999999997e-01 5.6535765886041371e+00 3.6920285591012520e+00 7.0712161732969809e+00 -2 -1 -3
289 67 7 -8.1999999999999995e-01 7.6734225398489553e+00 6.3479460332265711e+00 1.5668917194452767e+00 4 -7 2
262 58 7 -8.1999999999999995e-01 6.2375334180270396e+00 4.3382538398384023e+00 6.6143967004217996e-01 3 -6 -1
149 20 8 4.0999999999999998e-01 8.6481059918553509e+00 1.2921005776800296e+00 5.8133089577827164e+00 -3 -1 2
52 12 3 -1.3800000000000001e-01 8.0838108552241170e+00 5.5196390950950773e+00 6.0071156573898765e+00 -2 -1 -3
274 62 7 -8.1999999999999995e-01 6.6732731324674806e+00 3.4307106271327004e+00 3.6146680054315397e+00 -2 6 1
276 62 8 4.0999999999999998e-01 7.6081366552167573e+00 3.8274084129812960e+00 3.5939247822746663e+00 -2 6 1
275 62 8 4.0999999999999998e-01 6.2473675479139370e+00 3.5013257788723244e+00 2.7391824387204222e+00 -2 6 1
177 29 8 4.0999999999999998e-01 1.0180247407444574e+01 1.1654753063353809e-01 2.2870119215828315e+00 0 0 4
224 45 8 4.0999999999999998e-01 6.2414898685726685e+00 1.1046736963833623e+00 3.1215786562000307e+00 -2 6 -6
290 67 8 4.0999999999999998e-01 7.0831583607221180e+00 5.6233334075613941e+00 1.1338644054935960e+00 4 -7 2
32 11 2 -4.6100000000000002e-01 1.0056972313414892e+01 3.4984919929322094e+00 4.3625537299055672e+00 -1 0 -2
50 12 2 -4.6100000000000002e-01 7.6372244351439216e+00 2.4434036966713126e+00 6.3618444267053711e+00 -2 -1 -3
49 12 5 9.1100000000000003e-01 7.2717929406034001e+00 3.3939474165535848e+00 7.4205948774223174e+00 -2 -1 -3
223 45 7 -8.1999999999999995e-01 6.4653198082342591e+00 2.2039937456331329e-01 2.6984812041936164e+00 -2 6 -6
150 20 8 4.0999999999999998e-01 9.8231176228935588e+00 3.3150135384194840e-01 5.7394716778353381e+00 -3 -1 2
246 52 8 4.0999999999999998e-01 7.0814305199199890e+00 7.6639980891493364e-01 7.7267188650775713e+00 -5 2 0
241 51 7 -8.1999999999999995e-01 1.1216327241536849e+01 2.2081241441762942e-01 6.6351926494712758e+00 -7 1 1
37 11 3 -1.3800000000000001e-01 1.3155185757954957e+01 4.3428876097315046e+00 4.7175601286916162e+00 -1 0 -2
36 11 3 -1.3800000000000001e-01 1.2471324926860948e+01 2.6394611280162334e+00 5.9016231481564416e+00 -1 0 -2
292 68 7 -8.1999999999999995e-01 1.5304846946183870e+01 3.5993529681864915e+00 7.8415380530852046e+00 2 4 2
29 11 2 -4.6100000000000002e-01 1.4055783589900841e+01 4.3396863829005303e+00 2.2247396754840540e+00 -1 0 -2
90 15 3 -1.3800000000000001e-01 1.2071704655729503e+01 7.4344240184546964e+00 4.7244313047671902e+00 -4 -2 1
236 49 8 4.0999999999999998e-01 1.0785765500041691e+01 7.4756280089228753e+00 1.1471081691173686e+00 1 -1 -5
39 11 3 -1.3800000000000001e-01 1.3661457592724810e+01 2.3756256976381445e+00 4.0657203300105866e+00 -1 0 -2
31 11 6 -5.8799999999999997e-01 1.1283767941778533e+01 4.2340796330765977e+00 2.2008029760071888e+00 -1 0 -2
38 11 4 3.1900000000000001e-01 1.2746699931535607e+01 3.1506138015223972e+00 4.6095612452067218e+00 -1 0 -2
110 16 2 -4.6100000000000002e-01 1.5282996414615067e+01 1.0736588095285673e+00 6.3397819929049337e+00 -1 -3 -1
94 15 5 9.1100000000000003e-01 1.5364491885077395e+01 7.3762433950175286e+00 7.3614582214924846e+00 -4 -2 1
28 11 5 9.1100000000000003e-01 1.2879004000603437e+01 4.8818169220190386e+00 1.5555513644809855e+00 -1 0 -2
91 15 6 -5.8799999999999997e-01 1.4866508254982831e+01 7.0060634556329440e+00 5.8466654739373833e+00 -4 -2 1
89 15 2 -4.6100000000000002e-01 1.4996672797642544e+01 7.4828720270954436e+00 3.3244565544167002e+00 -4 -2 1
35 11 2 -4.6100000000000002e-01 1.1236588211397374e+01 1.7394245665905539e+00 2.8743400363735803e+00 -1 0 -2
34 11 5 9.1100000000000003e-01 1.1212951114249087e+01 3.0261134321367718e+00 3.5477923497470107e+00 -1 0 -2
25 11 2 -4.6100000000000002e-01 1.2791748136967675e+01 6.3704325866312388e+00 1.5158283074324164e+00 -1 0 -2
243 51 8 4.0999999999999998e-01 1.0827386652544050e+01 6.5971175470384569e-01 7.4524125538057664e+00 -7 1 1
294 68 8 4.0999999999999998e-01 1.4757062011475004e+01 2.7927850991205041e+00 7.8582817547859136e+00 2 4 2
42 12 4 3.1900000000000001e-01 4.7177371258360354e+00 4.8796686375763727e+00 9.3604324003032886e+00 -2 -1 -3
45 12 3 -1.3800000000000001e-01 3.8135641308618071e+00 5.0402221868193644e+00 1.0273683353152142e+01 -2 -1 -3
231 47 8 4.0999999999999998e-01 2.4518770463791131e+00 5.6537973767405321e+00 1.4404919664583439e+01 -3 7 -5
278 63 8 4.0999999999999998e-01 2.9656698280346681e+00 3.7750940671808024e+00 1.3059211920080273e+01 -7 -2 -2
229 47 7 -8.1999999999999995e-01 1.9331722797948441e+00 5.7635819277047693e+00 1.3480627243693212e+01 -3 7 -5
279 63 8 4.0999999999999998e-01 3.4378673340880010e+00 2.2891180302776259e+00 1.2292536855397238e+01 -7 -2 -2
102 16 4 3.1900000000000001e-01 5.9359628699515510e-01 3.7335945011880739e-01 9.7702014861473288e+00 0 -3 -1
277 63 7 -8.1999999999999995e-01 3.5900553849315049e+00 2.9348256261603320e+00 1.3007279134447071e+01 -7 -2 -2
230 47 8 4.0999999999999998e-01 9.3782163444698663e-01 5.7549480349233164e+00 1.3774366718998053e+01 -3 7 -5
44 12 2 -4.6100000000000002e-01 4.6724730266793104e+00 2.2245839374629908e+00 8.8668672206065597e+00 -2 -1 -3
105 16 3 -1.3800000000000001e-01 1.1371282961723355e+00 1.3769861378366446e+00 1.0494900539193642e+01 0 -3 -1
167 26 8 4.0999999999999998e-01 3.7277173320429897e+00 7.4482380577349421e+00 1.5259748586755947e+01 4 7 -6
43 12 5 9.1100000000000003e-01 4.4205204666820936e+00 3.4973367785504506e+00 8.2254758732198887e+00 -2 -1 -3
48 12 3 -1.3800000000000001e-01 4.8538828209197904e+00 6.0667646977060157e+00 8.6727319879563787e+00 -2 -1 -3
103 16 5 9.1100000000000003e-01 1.7168693444124270e+00 1.9656413651015298e-01 8.3447254228014689e+00 0 -3 -1
221 44 8 4.0999999999999998e-01 5.0823909699158758e+00 2.8325765671078207e+00 1.3712940898393819e+01 2 -5 -5
121 17 6 -5.8799999999999997e-01 3.8679821610807541e+00 4.0742551596811538e-01 1.5174293760235647e+01 3 1 -2
126 17 3 -1.3800000000000001e-01 7.0135298396495882e-01 1.7631718211841745e+00 1.5399664164689240e+01 3 1 -2
97 15 3 -1.3800000000000001e-01 1.6438841683399104e+00 7.8063165168830073e+00 8.7199626515140647e+00 -3 -2 1
273 61 8 4.0999999999999998e-01 3.0053370944587794e+00 7.1111853785787487e+00 1.3113725719000470e+01 -1 -1 0
264 58 8 4.0999999999999998e-01 6.2237581248873335e+00 3.7054622686741632e+00 1.5576856616107401e+01 3 -6 -2
51 12 3 -1.3800000000000001e-01 7.7839206757173161e+00 5.8673263854681874e+00 8.1980581456560415e+00 -2 -1 -3
82 14 3 -1.3800000000000001e-01 7.3010397025331120e+00 3.8132977868723461e-01 1.1951404773650037e+01 -1 2 2
41 12 3 -1.3800000000000001e-01 5.8136576092555092e+00 4.8315936297422315e+00 1.0024199988665568e+01 -2 -1 -3
220 44 7 -8.1999999999999995e-01 5.9413374291775902e+00 2.6984019313675449e+00 1.4267866598567041e+01 2 -5 -5
47 12 2 -4.6100000000000002e-01 7.4485935863295003e+00 3.0711042016317824e+00 8.8615873481797447e+00 -2 -1 -3
209 40 8 4.0999999999999998e-01 7.3139831154799975e+00 3.3211262882108352e+00 1.0693690122886442e+01 3 2 -8
210 40 8 4.0999999999999998e-01 8.8222746107682486e+00 3.2971418225715294e+00 1.1378268374974629e+01 3 2 -8
251 54 8 4.0999999999999998e-01 9.0642543371294035e+00 6.9165020401034125e+00 1.1952782572424205e+01 -5 -3 -3
200 37 8 4.0999999999999998e-01 9.0050820748721847e+00 6.2362377875473349e+00 1.4694027496089413e+01 8 5 -3
3 3 1 8.0000000000000004e-01 7.7652524471271125e+00 3.7999213879501323e+00 1.3677278165660008e+01 2 -5 -2
199 37 7 -8.1999999999999995e-01 8.8394376693657311e+00 5.5882665302792711e+00 1.3886349267991086e+01 8 5 -3
201 37 8 4.0999999999999998e-01 9.7255142881888901e+00 5.5326197636822654e+00 1.3486450207876794e+01 8 5 -3
208 40 7 -8.1999999999999995e-01 7.8144394776212653e+00 3.4149458024765509e+00 1.1616089132966151e+01 3 2 -8
250 54 7 -8.1999999999999995e-01 8.4601058900803245e+00 6.8648647644177307e+00 1.1161221459454117e+01 -5 -3 -3
252 54 8 4.0999999999999998e-01 7.6418611375924650e+00 6.2826491426668776e+00 1.1420775090566869e+01 -5 -3 -3
222 44 8 4.0999999999999998e-01 5.9534937424240635e+00 1.6979946350747337e+00 1.4529068188839837e+01 2 -5 -5
169 27 7 -8.1999999999999995e-01 8.7708666950836545e+00 2.3077148521666273e+00 1.4675894942414677e+01 -3 1 6
76 14 6 -5.8799999999999997e-01 1.0018388698146936e+01 1.9454265827788062e+00 1.1395345619543916e+01 -1 2 2
171 27 8 4.0999999999999998e-01 9.5255405771993491e+00 2.4984006052974004e+00 1.5299099204103531e+01 -3 1 6
79 14 5 9.1100000000000003e-01 9.9002769945358313e+00 2.4666823799315024e-01 1.1834595003239590e+01 -1 2 2
80 14 2 -4.6100000000000002e-01 1.0441692758851708e+01 1.1470317717308259e-01 1.3192447934421597e+01 -1 2 2
170 27 8 4.0999999999999998e-01 8.5588481212766325e+00 1.2947004994092273e+00 1.4600729097338146e+01 -3 1 6
26 11 3 -1.3800000000000001e-01 1.2634387787921336e+01 3.0096826852972907e+00 1.5414379798472950e+01 -1 0 -3
22 10 3 -1.3800000000000001e-01 1.5309572906339165e+01 7.7023694523476376e+00 1.3732229813758348e+01 0 0 -1
293 68 8 4.0999999999999998e-01 1.4855049572471820e+01 4.5047499210415722e+00 8.1976004598634304e+00 2 4 2
27 11 4 3.1900000000000001e-01 1.2973021628408800e+01 4.3422772181962861e+00 1.5613255700573152e+01 -1 0 -3
147 19 8 4.0999999999999998e-01 1.3146700932961057e+01 9.4036235493280829e-01 1.4691531544217495e+01 6 6 -2
283 65 7 -8.1999999999999995e-01 1.1959978850061434e+01 6.5462123200149431e+00 9.5464621325840842e+00 -5 2 3
95 15 2 -4.6100000000000002e-01 1.5047842687079148e+01 6.3376898837619882e+00 8.2941997490025976e+00 -4 -2 1
101 16 3 -1.3800000000000001e-01 1.5197001213609044e+01 7.7981799614326708e-01 9.2950015119749185e+00 -1 -3 -1
70 14 2 -4.6100000000000002e-01 1.1247759645834675e+01 1.6975778132135499e+00 8.9070425086702532e+00 -1 2 2
30 11 3 -1.3800000000000001e-01 1.4162231968889287e+01 4.6687094817716037e+00 1.5030576100269991e+01 -1 0 -3
75 14 3 -1.3800000000000001e-01 1.2801056993471853e+01 3.2238316159318980e+00 1.2246566280159247e+01 -1 2 2
78 14 3 -1.3800000000000001e-01 1.3779293384233767e+01 3.1031428126685534e+00 1.0280254645581653e+01 -1 2 2
73 14 5 9.1100000000000003e-01 1.1204514628419481e+01 2.4064091767235833e+00 1.0186485604182019e+01 -1 2 2
74 14 2 -4.6100000000000002e-01 1.0848581045269510e+01 3.7842106759270302e+00 9.9309427003615163e+00 -1 2 2
33 11 3 -1.3800000000000001e-01 1.2058807465541282e+01 4.9637925054009759e+00 1.4933706534729566e+01 -1 0 -3
155 22 8 4.0999999999999998e-01 1.1363206544554272e+01 6.8334817142555826e+00 1.1542146713836779e+01 -6 -1 -7
72 14 4 3.1900000000000001e-01 1.2802992290079802e+01 2.4949324776684310e+00 1.1041210593141566e+01 -1 2 2
71 14 3 -1.3800000000000001e-01 1.3256548072813386e+01 1.2500777297441148e+00 1.1299499600584159e+01 -1 2 2
156 22 8 4.0999999999999998e-01 1.1819432259396732e+01 7.1388607205759405e+00 1.3179298606446748e+01 -6 -1 -7
154 22 7 -8.1999999999999995e-01 1.1065329764703209e+01 6.8569169179080509e+00 1.2514847545931984e+01 -6 -1 -7
284 65 8 4.0999999999999998e-01 1.1291660180395256e+01 5.9498905317258624e+00 9.0466224580750598e+00 -5 2 3
285 65 8 4.0999999999999998e-01 1.2950258791715523e+01 6.3538206280531426e+00 9.2678748899046823e+00 -5 2 3
145 19 7 -8.1999999999999995e-01 1.3201913881170476e+01 1.0159828213528163e-01 1.4050683456536715e+01 6 6 -2
143 18 4 3.1900000000000001e-01 5.1275876898231045e+00 9.1221482888522161e+00 6.1750248309762972e+00 -2 0 0
142 18 3 -1.3800000000000001e-01 4.6064528106284319e+00 1.0254186439453768e+01 6.6938897305468421e+00 -2 0 0
160 24 7 -8.1999999999999995e-01 1.4495369070243811e+00 1.1754674165747888e+01 2.3001520219180134e+00 2 3 2
162 24 8 4.0999999999999998e-01 1.3241086028800111e+00 1.2685555839501879e+01 2.7470571547140330e+00 2 3 2
161 24 8 4.0999999999999998e-01 7.1728174463716388e-01 1.1622168293656946e+01 1.5890011842205669e+00 2 3 2
280 64 7 -8.1999999999999995e-01 4.3859524437283062e+00 1.3489262690312474e+01 3.6796852983316319e+00 2 7 -8
282 64 8 4.0999999999999998e-01 4.0478535476587636e+00 1.4216039750738524e+01 3.0734214608380821e+00 2 7 -8
281 64 8 4.0999999999999998e-01 3.9409512313060855e+00 1.3605928413149677e+01 4.6195854938024485e+00 2 7 -8
106 16 6 -5.8799999999999997e-01 7.0115984755627703e-01 1.4894057886459958e+01 7.3891422675917768e+00 0 -4 -1
184 32 7 -8.1999999999999995e-01 3.1656884151049502e+00 1.2867534881006490e+01 6.5094422570379340e+00 -3 -2 3
141 18 3 -1.3800000000000001e-01 4.5609004171249632e+00 8.7281086121569977e+00 5.0128280613757346e+00 -2 0 0
178 30 7 -8.1999999999999995e-01 1.7873803018107488e+00 1.0993186022522275e+01 4.9417755730238504e+00 -11 -6 -1
185 32 8 4.0999999999999998e-01 2.5664473368306604e+00 1.3599477721703529e+01 7.0684167059645118e+00 -3 -2 3
180 30 8 4.0999999999999998e-01 1.5046790485594350e+00 1.0007236326182674e+01 5.0043925047336808e+00 -11 -6 -1
268 60 7 -8.1999999999999995e-01 4.4868661515356960e+00 1.5273875256897650e+01 5.9909343807002147e+00 -1 0 -1
186 32 8 4.0999999999999998e-01 2.5360141220011991e+00 1.2347491361652853e+01 5.8896835358039805e+00 -3 -2 3
239 50 8 4.0999999999999998e-01 4.2537736014859435e+00 1.0357201105210171e+01 9.5012840631613149e-01 3 5 -3
179 30 8 4.0999999999999998e-01 1.7858379387045999e+00 1.1047433947841734e+01 3.8695809525556122e+00 -11 -6 -1
144 18 3 -1.3800000000000001e-01 4.8655698726009167e+00 8.1470749234734683e+00 7.0486593884976401e+00 -2 0 0
269 60 8 4.0999999999999998e-01 4.2277589621708858e+00 1.4394359186427332e+01 6.4627665244329293e+00 -1 0 -1
99 15 3 -1.3800000000000001e-01 1.9376854324399120e+00 8.7482847928832381e+00 6.8148871352906735e+00 -3 -2 1
238 50 7 -8.1999999999999995e-01 3.8297678952983740e+00 9.8156377838924893e+00 1.7431974339953265e+00 3 5 -3
240 50 8 4.0999999999999998e-01 3.1396855950299352e+00 1.0462764482374583e+01 2.1938000541442442e+00 3 5 -3
122 17 2 -4.6100000000000002e-01 1.9904385610929620e+00 1.4729997981962269e+01 3.5861901075014851e-01 3 0 -1
168 26 8 4.0999999999999998e-01 4.5989475733784868e+00 8.2542661651883869e+00 5.8450509368085990e-01 4 7 -5
113 16 4 3.1900000000000001e-01 1.9697205133829260e-01 1.4983686463960419e+01 4.6884695091316715e+00 0 -4 -1
111 16 3 -1.3800000000000001e-01 7.0956945131446314e-01 1.3775158717585231e+01 4.4128329986493418e+00 0 -4 -1
159 23 8 4.0999999999999998e-01 2.7174049394689579e+00 8.3353407552128633e+00 2.1281246464870249e+00 -3 -1 1
165 25 8 4.0999999999999998e-01 5.0909958936265571e+00 8.6460101126793401e+00 2.6510056532760649e+00 4 5 2
119 17 2 -4.6100000000000002e-01 5.0792652397040996e+00 1.4018314813683189e+01 2.0381779500814404e-01 3 0 -1
270 60 8 4.0999999999999998e-01 5.3889279963981558e+00 1.5518950457288380e+01 6.3276101723610045e+00 -1 0 -1
235 49 7 -8.1999999999999995e-01 1.0350963484696582e+01 8.2518079544731346e+00 6.6710786603074768e-01 1 -1 -5
163 25 7 -8.1999999999999995e-01 6.0947606133929071e+00 8.4743905938108153e+00 2.5924230890344950e+00 4 5 2
135 18 3 -1.3800000000000001e-01 9.9251318657425003e+00 1.2967164617630152e+01 7.2439687058173607e+00 -2 0 0
175 29 7 -8.1999999999999995e-01 9.6146527497165444e+00 1.5040350668083040e+01 2.2615082531907156e+00 0 -1 4
140 18 2 -4.6100000000000002e-01 7.4691148919279859e+00 9.4805475407088426e+00 7.3595792156249971e+00 -2 0 0
139 18 5 9.1100000000000003e-01 6.9005726248744192e+00 9.3522314617103461e+00 5.9868464228254306e+00 -2 0 0
6 6 1 8.0000000000000004e-01 8.0551686970142971e+00 1.5082859957980913e+01 3.5005291731840908e+00 -4 -2 0
132 18 4 3.1900000000000001e-01 9.4968905669374539e+00 1.1976843602794983e+01 6.4490749139388717e+00 -2 0 0
256 56 7 -8.1999999999999995e-01 9.5037645229435839e+00 1.0350971412551084e+01 2.9601517480113002e+00 1 4 -9
136 18 6 -5.8799999999999997e-01 7.0419282525331841e+00 1.0914060190008069e+01 5.1771123580730096e+00 -2 0 0
287 66 8 4.0999999999999998e-01 5.4652614428172610e+00 1.2473818130455514e+01 3.1782138237706250e+00 8 1 -6
130 18 2 -4.6100000000000002e-01 7.5998638216274585e+00 1.3318027359910266e+01 4.9620266947623008e+00 -2 0 0
133 18 5 9.1100000000000003e-01 7.7208373795749203e+00 1.2242111964074784e+01 5.9898365875082016e+00 -2 0 0
9 9 1 8.0000000000000004e-01 7.2168469833774811e+00 1.0422699934123221e+01 2.9341524718790817e+00 -2 3 2
138 18 3 -1.3800000000000001e-01 1.0342580933751741e+01 1.2110030400856832e+01 5.4092839947935252e+00 -2 0 0
286 66 7 -8.1999999999999995e-01 6.1288713975790561e+00 1.2066413673505888e+01 2.5098099984168503e+00 8 1 -6
288 66 8 4.0999999999999998e-01 6.1344380843941657e+00 1.2638871146235655e+01 1.6086560761767221e+00 8 1 -6
258 56 8 4.0999999999999998e-01 1.0076743948279384e+01 1.1166736542708129e+01 3.1993858236720580e+00 1 4 -9
257 56 8 4.0999999999999998e-01 9.9701289921467566e+00 9.6689735644968717e+00 2.2913483244569637e+00 1 4 -9
137 18 2 -4.6100000000000002e-01 7.6033960945161576e+00 8.3863733849774125e+00 5.0929762092201347e+00 -2 0 0
134 18 2 -4.6100000000000002e-01 6.8529255818920136e+00 1.2281672309968547e+01 7.1999810162459186e+00 -2 0 0
190 34 7 -8.1999999999999995e-01 7.5167694994635088e+00 1.0415889802931956e+01 5.6442306416904953e-01 4 -6 1
176 29 8 4.0999999999999998e-01 9.9876564531362249e+00 1.4440802555035228e+01 1.5736181588426210e+00 0 -1 4
131 18 3 -1.3800000000000001e-01 9.7589979738608168e+00 1.0818377721833162e+01 7.0642550117729810e+00 -2 0 0
8 8 1 8.0000000000000004e-01 7.6465472554958085e+00 8.2665458672998966e+00 9.3565629678373508e-01 -1 0 -1
245 52 8 4.0999999999999998e-01 7.6507625544774243e+00 1.5538422341292407e+01 6.4576759971445510e+00 -5 1 0
244 52 7 -8.1999999999999995e-01 7.0705846493351139e+00 1.5638600005860368e+01 7.2930576709283814e+00 -5 1 0
191 34 8 4.0999999999999998e-01 6.7038574056378106e+00 1.0973696969650158e+01 2.6266569048801397e-01 4 -6 1
225 45 8 4.0999999999999998e-01 5.6486178167569916e+00 1.5662242385723511e+01 2.1797827963256715e+00 -2 5 -6
266 59 8 4.0999999999999998e-01 1.4522508487190303e+01 1.2761271795071220e+01 6.2511166409361758e+00 -2 6 5
68 13 4 3.1900000000000001e-01 1.3107580521584177e+01 1.2746103421105994e+01 1.5634292399432779e+00 -1 -2 3
66 13 3 -1.3800000000000001e-01 1.3714832035126689e+01 1.1610056279528932e+01 1.9973691931080588e+00 -1 -2 3
109 16 5 9.1100000000000003e-01 1.5319708875655987e+01 1.5430605371214153e+01 6.2800614353649706e+00 -1 -4 -1
67 13 3 -1.3800000000000001e-01 1.2165491686510723e+01 1.3095370224105348e+01 2.4684719472747649e+00 -1 -2 3
93 15 3 -1.3800000000000001e-01 1.2450201521151126e+01 9.0730452203511760e+00 3.4131143215485267e+00 -4 -2 1
107 16 2 -4.6100000000000002e-01 1.4116292725782746e+01 1.4615388483286569e+01 6.5779015717876863e+00 -1 -4 -1
242 51 8 4.0999999999999998e-01 1.2120904451149615e+01 1.5558682478083993e+01 6.8644651804742169e+00 -7 0 1
86 15 3 -1.3800000000000001e-01 1.2519747630046885e+01 9.4601958619610702e+00 5.6001647626642725e+00 -4 -2 1
69 13 3 -1.3800000000000001e-01 1.3998009383948467e+01 1.3745242480091925e+01 1.5069546169043411e+00 -1 -2 3
265 59 7 -8.1999999999999995e-01 1.4422990940452374e+01 1.1706905582581198e+01 6.1882971107976612e+00 -2 6 5
85 15 2 -4.6100000000000002e-01 1.5338903066680169e+01 9.3540907166847358e+00 4.9136248087497227e+00 -4 -2 1
237 49 8 4.0999999999999998e-01 1.0930160763806793e+01 8.9221228550222573e+00 1.1424469926257537e-01 1 -1 -5
267 59 8 4.0999999999999998e-01 1.4726892149027963e+01 1.1295053697623041e+01 5.2860838986187417e+00 -2 6 5
87 15 4 3.1900000000000001e-01 1.2748200232995607e+01 8.5694059549668431e+00 4.5564856550380632e+00 -4 -2 1
92 15 2 -4.6100000000000002e-01 1.4726761382194770e+01 8.6468999461899916e+00 7.6313913960970714e+00 -4 -2 1
2 2 1 8.0000000000000004e-01 1.3477902557414208e+01 1.0271756150511704e+01 7.6727396899849838e+00 -6 -2 -3
88 15 5 9.1100000000000003e-01 1.4547205958121197e+01 8.1545836407502073e+00 4.5593609487266500e+00 -4 -2 1
114 16 3 -1.3800000000000001e-01 1.5082863893982058e+01 1.5355755848103346e+01 3.7023252006430298e+00 -1 -4 -1
249 53 8 4.0999999999999998e-01 2.4950182316696208e+00 1.2474694452176401e+01 9.2471519442583467e+00 2 -4 -3
247 53 7 -8.1999999999999995e-01 3.1243878072427629e+00 1.2453929227382075e+01 1.0010307662404900e+01 2 -4 -3
14 10 2 -4.6100000000000002e-01 1.7425743871546568e+00 9.5273592262202644e+00 1.1960780944195076e+01 1 0 -1
17 10 2 -4.6100000000000002e-01 1.8558172841015530e+00 9.8630869794113263e+00 1.4776356172386686e+01 1 0 -1
117 17 4 3.1900000000000001e-01 4.5884112048741823e+00 1.4008838676775984e+01 1.3400976383114781e+01 3 0 -2
108 16 3 -1.3800000000000001e-01 4.8640408997839418e-01 1.5107532492785841e+01 1.0581739000433886e+01 0 -4 -1
10 10 2 -4.6100000000000002e-01 1.1135776664082617e+00 1.2065869188183628e+01 1.1948095135080314e+01 1 0 -1
123 17 3 -1.3800000000000001e-01 3.6793775005109430e+00 1.3093057854346370e+01 1.3696452107855597e+01 3 0 -2
248 53 8 4.0999999999999998e-01 2.5296437487375569e+00 1.2603904499887614e+01 1.0839703689470202e+01 2 -4 -3
13 10 5 9.1100000000000003e-01 7.5022442142850032e-01 1.0615620264411254e+01 1.1807773777931839e+01 1 0 -1
19 10 5 9.1100000000000003e-01 3.6320026902213481e-01 1.0041651174557186e+01 1.4806578350662125e+01 1 0 -1
214 42 7 -8.1999999999999995e-01 5.0526287870997608e+00 1.1126867402511884e+01 1.5269708328845580e+01 12 -7 -2
118 17 5 9.1100000000000003e-01 5.0191366701163096e+00 1.4972967207677785e+01 1.4917414330352624e+01 3 0 -2
228 46 8 4.0999999999999998e-01 6.8069099574213743e-01 1.4457457215304453e+01 1.4608375685895393e+01 5 -1 4
120 17 3 -1.3800000000000001e-01 4.0545587580410460e+00 1.4769388024111052e+01 1.2392843179957577e+01 3 0 -2
272 61 8 4.0999999999999998e-01 2.8413530985857030e+00 8.5858655986436112e+00 1.2720048712375904e+01 -1 -1 0
216 42 8 4.0999999999999998e-01 4.1695180746892140e+00 1.1550407681254409e+01 1.5018090028941417e+01 12 -7 -2
226 46 7 -8.1999999999999995e-01 2.8139345775326532e-02 1.4463113520453255e+01 1.3883391385358689e+01 5 -1 4
217 43 7 -8.1999999999999995e-01 4.9404750757181937e+00 1.0157348038082400e+01 1.2515808520001055e+01 4 -6 3
1 1 1 8.0000000000000004e-01 5.2113965086031850e+00 1.2422812819993853e+01 9.1787850520035512e+00 -1 4 -4
260 57 8 4.0999999999999998e-01 4.6861038592754607e+00 1.5205667227372652e+01 9.0112785147079286e+00 8 4 -2
18 10 3 -1.3800000000000001e-01 5.3170838371394014e-01 1.0410239624181877e+01 9.3623117661241118e+00 1 0 -1
218 43 8 4.0999999999999998e-01 4.5184947487283820e+00 9.2345367162914265e+00 1.2639978044614805e+01 4 -6 3
219 43 8 4.0999999999999998e-01 4.2713332531202957e+00 1.0861922840179933e+01 1.2242299841185845e+01 4 -6 3
100 16 2 -4.6100000000000002e-01 2.9996156532344860e+00 1.5318003204313662e+01 8.6462620460272284e+00 0 -4 -1
271 61 7 -8.1999999999999995e-01 3.4858789256030280e+00 7.9668530529492321e+00 1.3166514541290194e+01 -1 -1 0
116 17 3 -1.3800000000000001e-01 5.6292883022067590e+00 1.3258130209953523e+01 1.3032839420241627e+01 3 0 -2
59 13 2 -4.6100000000000002e-01 9.5910484277379702e+00 1.0138836451124707e+01 1.4519388282467389e+01 -1 -2 2
215 42 8 4.0999999999999998e-01 5.5817031463709768e+00 1.0662727331988902e+01 1.4447875155583196e+01 12 -7 -2
152 21 8 4.0999999999999998e-01 7.0134676798632336e+00 9.1886577196303865e+00 9.0443627493428611e+00 -1 5 -6
81 14 3 -1.3800000000000001e-01 8.1452343758742565e+00 1.5304746644818380e+01 1.0011548869210765e+01 -1 1 2
261 57 8 4.0999999999999998e-01 6.3337421007411390e+00 1.4867842312231328e+01 8.4910546033767922e+00 8 4 -2
153 21 8 4.0999999999999998e-01 7.7323082896394615e+00 8.1613329003631101e+00 1.0256245051518219e+01 -1 5 -6
172 28 7 -8.1999999999999995e-01 6.3294762227578545e+00 1.1459010007344542e+01 1.0714915791504277e+01 -4 -5 8
173 28 8 4.0999999999999998e-01 6.6909562487200400e+00 1.0464597210633970e+01 1.0584997103882513e+01 -4 -5 8
174 28 8 4.0999999999999998e-01 6.0897950372995098e+00 1.1486681935017875e+01 1.1739873484054161e+01 -4 -5 8
259 57 7 -8.1999999999999995e-01 5.5428742718877135e+00 1.4577635497543586e+01 9.2051241900397436e+00 8 4 -2
151 21 7 -8.1999999999999995e-01 7.0187714469905265e+00 8.9217475555157328e+00 1.0037196290934791e+01 -1 5 -6
83 14 4 3.1900000000000001e-01 8.2874906521936431e+00 1.5428543218882133e+01 1.1345763268692767e+01 -1 1 2
56 13 3 -1.3800000000000001e-01 9.9840637729711297e+00 1.1193644555769030e+01 1.1748511863104445e+01 -1 -2 2
84 14 3 -1.3800000000000001e-01 8.1088011110007354e+00 1.4183447845753108e+01 1.1817567005450096e+01 -1 1 2
63 13 3 -1.3800000000000001e-01 1.0311153659491154e+01 1.2873421064454476e+01 1.3156551373205836e+01 -1 -2 2
206 39 8 4.0999999999999998e-01 8.5435635133297314e+00 8.2943628197522195e+00 1.4100155353219726e+01 3 -5 -5
205 39 7 -8.1999999999999995e-01 7.5548209498641716e+00 8.1638899996414089e+00 1.4417300866931605e+01 3 -5 -5
207 39 8 4.0999999999999998e-01 6.9886830733080521e+00 7.9093726362440355e+00 1.3684384886577796e+01 3 -5 -5
192 34 8 4.0999999999999998e-01 8.0657768897541313e+00 1.0154286928536422e+01 1.5575224386774549e+01 4 -6 0
115 17 2 -4.6100000000000002e-01 6.2669122609620880e+00 1.5740467371074269e+01 1.4728923412076851e+01 3 0 -2