variable        infile index data.mol
variable        mytemp index 373

# set up simulation
#read_restart    ${NAME}.restart.*

# the following information is saved to restart files
units           real
atom_style      full
boundary        p p p
pair_style      lj/cut/coul/long 7
kspace_style    pppm 0.0001
pair_modify     tail yes
pair_modify     mix arithmetic
special_bonds   amber

bond_style      harmonic
angle_style     harmonic
dihedral_style  charmm
#improper_style  cvff

read_data       ${infile}
read_data       data.mol
  orthogonal box = (0 0 0) to (15.7932 15.7932 15.7932)
  1 by 2 by 2 MPI processor grid
  reading atoms ...
  294 atoms
  reading velocities ...
  294 velocities
  scanning bonds ...
  4 = max bonds/atom
  scanning angles ...
  6 = max angles/atom
  scanning dihedrals ...
  12 = max dihedrals/atom
  reading bonds ...
  226 bonds
  reading angles ...
  275 angles
  reading dihedrals ...
  270 dihedrals
  4 = max # of 1-2 neighbors
  6 = max # of 1-3 neighbors
  12 = max # of 1-4 neighbors
  14 = max # of special neighbors
  special bonds CPU = 0.000578323 secs
  read_data CPU = 0.0127324 secs

#replicate       3 4 4

neighbor        2.0 bin
neigh_modify    delay 0 every 1 check yes page 1000000 one 20000
timestep        1.0
#velocity        all create ${mytemp} 314159265 mom yes rot yes dist gaussian

## end information that is saved to restart files

## create velocity profile
#minimize       1e-4 1e-6 10000 10000
#velocity        all create  ${mytemp} 314159265 units box
velocity        all zero linear units box
dump            DUMP all custom 1000 ${NAME}.lammpstrj id type x y z mol
dump            DUMP all custom 1000 mol.lammpstrj id type x y z mol
thermo_style    custom step vol temp press ke pe etotal enthalpy evdwl ecoul epair ebond eangle edihed eimp emol elong etail lx ly lz xy xz yz pxy pxz pyz pxx pyy pzz
thermo          1000
#
## thermostat and integrator

#fix             NPT all npt temp ${mytemp} ${mytemp} 100.0 iso 1.0 1.0 100.0
fix             NVT all nvt temp ${mytemp} ${mytemp} 100.0
fix             NVT all nvt temp 373 ${mytemp} 100.0
fix             NVT all nvt temp 373 373 100.0

restart         50000 restart.${NAME}.1 restart.${NAME}.2
restart         50000 restart.mol.1 restart.${NAME}.2
restart         50000 restart.mol.1 restart.mol.2
run             10000000
PPPM initialization ...
  using 12-bit tables for long-range coulomb (src/kspace.cpp:332)
  G vector (1/distance) = 0.3803
  grid = 12 12 12
  stencil order = 5
  estimated absolute RMS force accuracy = 0.0233741
  estimated relative force accuracy = 7.03904e-05
  using double precision KISS FFT
  3d grid and FFT values/proc = 3211 432
Neighbor list info ...
  update every 1 steps, delay 0 steps, check yes
  max neighbors/atom: 20000, page size: 1000000
  master list distance cutoff = 9
  ghost atom cutoff = 9
  binsize = 4.5, bins = 4 4 4
  1 neighbor lists, perpetual/occasional/extra = 1 0 0
  (1) pair lj/cut/coul/long, perpetual
      attributes: half, newton on
      pair build: half/bin/newton
      stencil: half/bin/3d/newton
      bin: standard
Per MPI rank memory allocation (min/avg/max) = 17.93 | 17.93 | 17.93 Mbytes
Step Volume Temp Press KinEng PotEng TotEng Enthalpy E_vdwl E_coul E_pair E_bond E_angle E_dihed E_impro E_mol E_long E_tail Lx Ly Lz Xy Xz Yz Pxy Pxz Pyz Pxx Pyy Pzz 
       0    3939.2215    374.91858   -3193.7436     327.4454    -595.8752    -268.4298   -451.90879   -2.6064964    4761.6145   -1235.4951    123.33742    120.01637    396.26615            0    639.61994   -5994.5031   -31.145075      15.7932      15.7932      15.7932            0            0            0    1398.1158      4492.75   -678.18431   -569.86277   -5009.6168   -4001.7512 
    1000    3939.2215     359.1966    -4414.955    313.71417   -618.48795   -304.77378   -558.41076   -26.635109     4757.739   -1257.8192    106.43276    134.12489    398.77364            0     639.3313   -5988.9232   -31.145075      15.7932      15.7932      15.7932            0            0            0   -568.35488   -542.65006    1094.2973   -5908.9045   -6127.0733   -1208.8872 
    2000    3939.2215    336.61299    5468.7867    293.99016   -619.98828   -325.99812   -11.819029   -4.7509515    4738.6004   -1259.5058    105.35518    124.10928    410.05309            0    639.51754   -5993.3553   -31.145075      15.7932      15.7932      15.7932            0            0            0    3839.7487    2714.1706   -2275.1792      841.013    7201.0128    8364.3344 
    3000    3939.2215    326.05507    243.54849    284.76911   -598.67355   -313.90444    -299.9127   -14.402288    4784.2376   -1224.4618    94.128083    128.51875    403.14142            0    625.78826   -5994.2971   -31.145075      15.7932      15.7932      15.7932            0            0            0    2298.2915    2068.6327   -617.33762    4254.7025   -3584.3508    60.293799 
    4000    3939.2215    378.49479    4485.9811    330.56878   -599.41273   -268.84395   -11.126556    30.649959    4722.4683    -1242.331    106.78194    132.63409    403.50225            0    642.91828   -5995.4493   -31.145075      15.7932      15.7932      15.7932            0            0            0    -2321.734   -326.25964   -878.97968    1997.2421    6271.7924    5188.9089 
    5000    3939.2215    395.98452   -1312.7944    345.84391   -619.58196   -273.73805   -349.15744    20.281776    4730.8637   -1247.1304    94.886944    141.23335    391.42813            0    627.54842   -5998.2758   -31.145075      15.7932      15.7932      15.7932            0            0            0   -3768.6937    4399.6641    1746.6503   -3960.0514    4198.3861    -4176.718 
    6000    3939.2215      364.324   -1097.2594    318.19233   -636.74328   -318.55096   -381.58797   -7.1193129    4764.4765   -1240.6158    89.751517    118.25876    395.86227            0    603.87254    -5997.973   -31.145075      15.7932      15.7932      15.7932            0            0            0     673.5867   -80.231975   -49.318007   -4275.0281    -357.7516    1341.0014 
    7000    3939.2215    379.80362    2598.2392    331.71188   -606.47891   -274.76703   -125.49948    1.0581167    4753.2894   -1240.1543    95.199398    132.45454    406.02143            0    633.67537   -5994.5018   -31.145075      15.7932      15.7932      15.7932            0            0            0    478.73445   -4304.7498   -723.25439    3346.8263    4253.0207    194.87056 
    8000    3939.2215     370.9246   -885.25877    323.95714    -591.8208   -267.86366   -318.72133   -9.7772058    4749.5366   -1252.3251    106.72298    143.99935      409.782            0    660.50433   -5992.0846   -31.145075      15.7932      15.7932      15.7932            0            0            0   -4287.4912   -3399.7335    2450.7381   -358.52531   -5352.5084    3055.2575 
    9000    3939.2215     389.2164   -1988.0947    339.93278   -620.89236   -280.95958   -395.17464   -5.4918424    4732.6136   -1267.9372     112.9279    127.74808    406.36887            0    647.04484   -5995.0589   -31.145075      15.7932      15.7932      15.7932            0            0            0    28.216082   -2300.3988   -354.51038    2469.9333   -3143.6212   -5290.5962 
   10000    3939.2215    362.90736   -543.28575    316.95507   -614.59834   -297.64327   -328.85477    2.2543077    4723.8268     -1264.59     105.9023     129.9454    414.14397            0    649.99167   -5990.6711   -31.145075      15.7932      15.7932      15.7932            0            0            0    2497.7951    534.98598   -1168.1017    382.89451    746.46321    -2759.215 
   11000    3939.2215    366.13174   -2178.3698    319.77116   -638.59655   -318.82538   -443.97165    2.2495533    4715.2142   -1275.5382    96.756592     136.0521    404.13293            0    636.94162   -5993.0019   -31.145075      15.7932      15.7932      15.7932            0            0            0    2200.4061     2950.616    2107.6605   -2149.9118   -1333.6988   -3051.4989 
   12000    3939.2215    374.85147   -2988.5089    327.38678   -599.21248    -271.8257   -443.51406     16.25402    4725.2965   -1253.5345    107.71881    141.47387    405.12937            0    654.32206   -5995.0851   -31.145075      15.7932      15.7932      15.7932            0            0            0    1635.3407   -1057.6879   -2997.7047   -531.01162   -7378.6756   -1055.8396 
   13000    3939.2215    392.90219    1418.2338    343.15187   -634.89677    -291.7449   -210.26807    4.9462081    4738.6696   -1253.4221    91.805245    124.94147     401.7786            0    618.52532   -5997.0379   -31.145075      15.7932      15.7932      15.7932            0            0            0   -3079.6456   -1800.6057    949.20395    150.58775    1486.1981    2617.9155 
   14000    3939.2215    338.83544    4366.6064     295.9312   -631.46079   -335.52959   -84.670207   0.26232876    4726.1098   -1266.1284    93.927625    142.69653    398.04346            0    634.66761   -5992.5005   -31.145075      15.7932      15.7932      15.7932            0            0            0   -976.45511   -9286.8596   -201.42697    2471.5228    6648.1242    3980.1723 
   15000    3939.2215    377.89805    -372.8307     330.0476   -647.02794   -316.98034   -338.39928    12.351227    4692.0021   -1293.0964    100.70562    139.29611    406.06675            0    646.06848   -5997.4498   -31.145075      15.7932      15.7932      15.7932            0            0            0   -812.32293    -491.6247    3471.8262   -8561.7187    6228.5008    1214.7258 
   16000    3939.2215    356.10404   -1277.0965     311.0132   -587.40554   -276.39233    -349.7609   -9.6387734    4734.9838   -1265.9836    114.85468    158.21617    405.50724            0    678.57809   -5991.3287   -31.145075      15.7932      15.7932      15.7932            0            0            0    5518.4665    87.635955   -332.74276     265.8991   -2862.1785     -1235.01 
   17000    3939.2215    362.51107   -4087.9808    316.60895   -629.39467   -312.78572    -547.6382    11.722267    4713.0902   -1266.2334     109.0019    130.81202    397.02476            0    636.83869   -5991.0458   -31.145075      15.7932      15.7932      15.7932            0            0            0   -307.43475   -2132.9804   -3397.8001   -3057.5761   -1981.9893   -7224.3772 
   18000    3939.2215    400.88984   -718.12336     350.1281   -619.21514   -269.08703   -310.34287   -6.4148781    4755.9831   -1242.9825    97.339294    123.71559    402.71252            0     623.7674   -5992.5507   -31.145075      15.7932      15.7932      15.7932            0            0            0   -1660.1507    613.27291    4223.3517    2094.4315   -1951.0092   -2297.7923 
   19000    3939.2215    378.73812    5715.9898    330.78129   -650.46337   -319.68208    8.6987084    8.9452398    4720.7546   -1261.8951    81.235703    130.08999    400.10602            0    611.43171    -5991.595   -31.145075      15.7932      15.7932      15.7932            0            0            0     2366.444   -3412.5782    -793.7216    2659.8132    11797.628    2690.5282 
   20000    3939.2215    382.40225   -735.28199    333.98146   -613.46923   -279.48778   -321.72936    6.8784246     4735.765   -1255.7415    114.48147    129.99699    397.79384            0     642.2723    -5998.385   -31.145075      15.7932      15.7932      15.7932            0            0            0   -2888.3958    571.89121    3159.3855    -677.1127   -968.86323   -559.87002 
   21000    3939.2215    387.05926    4260.3368    338.04879   -612.37161   -274.32282   -29.568582    7.4951979    4746.0171   -1237.0428    95.640577    127.69855    401.33208            0    624.67121   -5990.5551   -31.145075      15.7932      15.7932      15.7932            0            0            0   -159.78317    -2003.413    28.549123   -1622.6549    6138.3882     8265.277 
   22000    3939.2215    356.12549   -680.37936    311.03194   -615.78101   -304.74907   -343.83653    25.073837    4736.0633   -1233.3841    99.827033    114.63566    403.14043            0    617.60312   -5994.5213   -31.145075      15.7932      15.7932      15.7932            0            0            0    1248.2944   -2607.7696    1462.9578   -9205.1205    4840.3503    2323.6322 
   23000    3939.2215    348.45138   -2476.4338    304.32954   -598.89835   -294.56881   -436.83871    -7.906775    4767.0432   -1233.5813    111.75333    124.17748    398.75211            0    634.68292   -5992.7176   -31.145075      15.7932      15.7932      15.7932            0            0            0    3273.4665   -501.34445    1997.7116   -3312.1166   -2462.1352   -1655.0496 
   24000    3939.2215    379.63312    5742.4738    331.56296   -613.03159   -281.46862    48.433656    14.877375    4732.4565   -1250.4354    97.342806    141.43314    398.62784            0    637.40379   -5997.7693   -31.145075      15.7932      15.7932      15.7932            0            0            0    3002.0805   -2130.6024    1222.7666    6463.7192    6592.2337    4171.4685 
   25000    3939.2215    378.27022    1722.7843    330.37264   -639.25498   -308.88234   -209.90923    38.826579    4671.2712   -1283.4924    108.73743    132.43973    403.06023            0    644.23738   -5993.5902   -31.145075      15.7932      15.7932      15.7932            0            0            0   -2262.2066    553.53952    4681.6096    1531.8795   -1682.7994    5319.2728 
   26000    3939.2215    392.82322    2320.9567     343.0829   -611.58142   -268.49852   -135.16071   -2.7322749    4748.0444   -1249.9517    100.89318    143.29227    394.18483            0    638.37029   -5995.2638   -31.145075      15.7932      15.7932      15.7932            0            0            0    2349.8288   -3017.9494   -1760.0321    1801.0501    8392.4344   -3230.6144 
   27000    3939.2215    369.82254   -1965.7733    322.99463   -632.71628   -309.72166   -422.65436   -5.5129361    4702.0093   -1295.6953    106.58123    152.00538    404.39241            0    662.97902   -5992.1916   -31.145075      15.7932      15.7932      15.7932            0            0            0     3235.797    3683.4793   -2057.2539    1878.2363   -2908.1817   -4867.3745 
   28000    3939.2215    380.44209    1698.2657     332.2695   -602.61283   -270.34333    -172.7788    21.661171     4730.146    -1244.139    104.73121    135.10031    401.69467            0    641.52619   -5995.9462   -31.145075      15.7932      15.7932      15.7932            0            0            0   -4382.4242   -103.95478   -5711.3941    1332.4264     2639.417    1122.9538 
   29000    3939.2215    355.76605   -1238.8939      310.718   -631.28203   -320.56403   -391.73787    15.077567    4716.9256   -1260.4902    98.613572    128.89876    401.69584            0    629.20817   -5992.4934   -31.145075      15.7932      15.7932      15.7932            0            0            0    5144.1423   -2020.4515   -2166.5302    -2165.976   -672.78285   -877.92291 
   30000    3939.2215    366.11141   -6421.5003    319.75341   -614.73083   -294.97742   -663.88943   -7.3873365    4746.3736   -1255.4168    107.91486    133.22351    399.54764            0    640.68601   -5994.4031   -31.145075      15.7932      15.7932      15.7932            0            0            0   -261.92639    2177.6408    2083.1271   -6044.0781   -9484.2159   -3736.2068 
   31000    3939.2215    384.28045    3920.4097    335.62184   -602.36883   -266.74699   -41.521389    16.101107    4738.3463   -1242.4743    100.51968    142.08543    397.50041            0    640.10552   -5996.9218   -31.145075      15.7932      15.7932      15.7932            0            0            0   -316.84779    3814.2986    1650.9838    3541.6984    4830.8305    3388.7003 
   32000    3939.2215    395.03611    3468.1722    345.01559    -630.2945   -285.27891   -86.034138    22.758171    4707.7757   -1267.7449    103.32072    127.42188    406.70782            0    637.45042   -5998.2788   -31.145075      15.7932      15.7932      15.7932            0            0            0    1140.0355    1410.1968    801.00399    3643.5777    3528.8873    3232.0515 
   33000    3939.2215    360.61789    -18.17655     314.9555   -624.51842   -309.56292   -310.60716   -3.2602456    4765.9478   -1231.6854    92.276115    115.54943    399.34146            0    607.16701    -5994.373   -31.145075      15.7932      15.7932      15.7932            0            0            0   -2620.3639    372.66442    2417.9952   -3729.9946    1060.2445    2615.2204 
   34000    3939.2215     364.7501   -4092.0098    318.56448   -632.37843   -313.81396    -548.8979   -6.2563293     4751.113   -1252.0189    96.953135     123.9049    398.78244            0    619.64048   -5996.8755   -31.145075      15.7932      15.7932      15.7932            0            0            0   -1969.7987    3009.0314    2430.3255    232.27365   -8429.1358   -4079.1672 
   35000    3939.2215    381.49853   -4565.7169    333.19217   -565.34687    -232.1547   -494.45288      3.28955     4747.569   -1246.8668    113.56697     165.1002    402.85278            0    681.51996   -5997.7254   -31.145075      15.7932      15.7932      15.7932            0            0            0    3318.1012   -1292.3762   -2551.3009   -6005.4465   -3495.2669   -4196.4373 
   36000    3939.2215    364.91836   -3375.9612    318.71142   -620.95108   -302.23966   -496.18696    21.921684    4686.0707   -1285.0224    124.87792    134.62455    404.56882            0    664.07128   -5993.0147   -31.145075      15.7932      15.7932      15.7932            0            0            0   -2521.7365   -2906.0239   -3967.6622   -4831.8584   -8761.2332    3465.2081 
   37000    3939.2215    401.72264   -3583.2816    350.85546   -616.62782   -265.77237   -471.63013   0.30700099    4719.4362   -1278.6216    110.90027     144.2479    406.84566            0    661.99382   -5998.3648   -31.145075      15.7932      15.7932      15.7932            0            0            0    489.96674     2623.317    1185.8861   -6427.5799   -342.12367   -3980.1413 
   38000    3939.2215     384.8815   -1560.8238    336.14678   -628.50666   -292.35988   -382.02843    21.504919    4691.1206   -1284.3531    113.47307    137.16062    405.21279            0    655.84648   -5996.9787   -31.145075      15.7932      15.7932      15.7932            0            0            0   -582.91561    692.73122    1886.0286    -4574.847   -2253.0132    2145.3889 
   39000    3939.2215     357.1381     120.6651    311.91633   -603.91115   -291.99482   -285.06267    -23.40249    4748.2135   -1268.6632    105.18374    147.21695    412.35136            0    664.75204   -5993.4742   -31.145075      15.7932      15.7932      15.7932            0            0            0    -2446.239   -4606.7612    -834.7625    6642.5824    -3033.758   -3246.8291 
   40000    3939.2215    356.09407   -3666.3141     311.0045   -613.33306   -302.32856    -512.9565   -21.382441    4762.1011   -1258.7324    93.178521    156.86473    395.35605            0     645.3993    -5999.451   -31.145075      15.7932      15.7932      15.7932            0            0            0    -1436.506    4036.0718    1450.1522    -5056.876   -2975.7629   -2966.3035 
   41000    3939.2215    349.60283    6929.7896    305.33519   -595.43611   -290.10091    108.01207    38.268559    4717.2025   -1239.1075    105.83695    133.97524    403.85923            0    643.67142   -5994.5786   -31.145075      15.7932      15.7932      15.7932            0            0            0   -929.24726   -1939.9063    -2606.163    4342.7011    5561.5186    10885.149 
   42000    3939.2215     368.1092   -585.89423    321.49823   -619.58537   -298.08714   -331.74648    3.6445415    4740.3846   -1249.0424    97.681648    133.62829    398.14709            0    629.45702   -5993.0715   -31.145075      15.7932      15.7932      15.7932            0            0            0    2052.0592   -75.163415   -2200.8674    -3330.277   -3378.3984    4950.9928 
   43000    3939.2215    388.28513   -2814.1068    339.11944   -602.77241   -263.65297   -425.32202    12.393349    4739.9818   -1244.5065    98.087422    143.72912    399.91757            0    641.73411   -5996.8816   -31.145075      15.7932      15.7932      15.7932            0            0            0     783.7107    3735.4846    638.86617    1658.7859   -4051.9044    -6049.202 
   44000    3939.2215    391.98569    3845.5689    342.35142   -609.81628   -267.46486   -46.538835    2.8790937     4753.661   -1239.9461    114.59717    121.31083    394.22183            0    630.12983   -5996.4863   -31.145075      15.7932      15.7932      15.7932            0            0            0   -2583.8976   -1682.4339    1919.3972    6274.4173    4953.5272    308.76215 
   45000    3939.2215    410.59831    570.86982    358.60726   -622.04979   -263.44253   -230.64634    22.813594    4702.5103   -1272.0434    99.153283    157.24047    393.59985            0    649.99361   -5997.3673   -31.145075      15.7932      15.7932      15.7932            0            0            0   -839.65121    6799.3055    487.67566    -3631.766     1866.526    3477.8495 
   46000    3939.2215    392.25103    1412.1603    342.58316   -601.68481   -259.10165   -177.97374   -6.0441257    4742.7564   -1262.1088    106.22953     148.2583    405.93614            0    660.42397   -5998.8211   -31.145075      15.7932      15.7932      15.7932            0            0            0    1748.5331    840.60706    1659.4787    -3321.896    5525.2769    2033.0998 
   47000    3939.2215    380.40601    -5895.722    332.23799   -617.75182   -285.51383   -624.22014   -26.219578    4763.1272   -1257.2017    108.89919    132.14501    398.40568            0    639.44988   -5994.1093   -31.145075      15.7932      15.7932      15.7932            0            0            0   -433.15748   -3406.2869   -3964.4461   -8546.2672   -7916.1271   -1224.7716 
   48000    3939.2215    361.58969     3245.518    315.80424    -611.9158   -296.11156   -109.65815    -8.370037    4772.6407   -1236.3054    85.303222    132.19038      406.896            0     624.3896   -6000.5761   -31.145075      15.7932      15.7932      15.7932            0            0            0   -208.95126    2868.4796    1973.7511    4426.7984    5291.5931    18.162496 
   49000    3939.2215     386.3055    2195.2177    337.39047   -582.63524   -245.24477    -119.1306  -0.51037562    4757.1488   -1237.1678    100.67429    146.06686     407.7914            0    654.53256   -5993.8062   -31.145075      15.7932      15.7932      15.7932            0            0            0    2090.9352   -2080.4225   -432.47101   -1059.8911    4312.1391     3333.405 
   50000    3939.2215    370.77022    940.60057    323.82231   -626.40477   -302.58246   -248.54542    5.6339237    4733.6265   -1252.3113    94.375445    130.79817    400.73294            0    625.90656   -5991.5717   -31.145075      15.7932      15.7932      15.7932            0            0            0    1933.3429     1638.798   -855.76015   -669.43298    4702.2371   -1211.0024 
   51000    3939.2215     359.1928   -1310.1007    313.71085   -626.55493   -312.84408   -388.10872   -10.934831    4724.0617   -1279.6361    96.368742    149.61517    407.09726            0    653.08117    -5992.763   -31.145075      15.7932      15.7932      15.7932            0            0            0   -2920.2588   -1737.2491    3108.2544   -2693.0458   -19.133668   -1218.1227 
   52000    3939.2215    334.43526    2165.0981    292.08818   -593.54973   -301.46156   -177.07774    5.0384101    4742.2667   -1244.6691    113.79846    130.97265    406.34827            0    651.11938   -5991.9743   -31.145075      15.7932      15.7932      15.7932            0            0            0    1062.9744   -1262.8663   -1688.3918    2613.7947    1763.2505    2118.2491 
   53000    3939.2215    360.57366   -219.24319    314.91687   -594.86527    -279.9484   -292.54381    5.2946429    4742.9658   -1244.9273    97.272238     153.9206    398.86915            0    650.06198   -5993.1877   -31.145075      15.7932      15.7932      15.7932            0            0            0    378.79011    3344.2433    4321.6216   -2651.7847    1152.9299    841.12531 
   54000    3939.2215    394.17994    3761.4973    344.26783   -610.83176   -266.56393   -50.467769   -1.5603277    4743.5111   -1250.1309    103.98943    134.91174    400.39793            0     639.2991   -5992.0816   -31.145075      15.7932      15.7932      15.7932            0            0            0   -621.72757   -3125.6282   -1250.0519   -162.58247    5857.7515    5589.3228 
   55000    3939.2215    371.13259    316.23005     324.1388   -617.10228   -292.96349   -274.79623   -18.575606    4772.6349   -1243.2177    92.260977    136.68605    397.16838            0    626.11541    -5997.277   -31.145075      15.7932      15.7932      15.7932            0            0            0    2106.5299   -2181.8248   -1033.6567   -2610.9496    3504.8605     54.77926 
   56000    3939.2215    353.43493   -4207.2887    308.68206   -586.14682   -277.46476   -519.17141   -16.871414    4769.0819   -1240.8221    118.43512    135.32209    400.91806            0    654.67527   -5993.0326   -31.145075      15.7932      15.7932      15.7932            0            0            0   -237.10539   -1047.5462    -1866.007   -1548.3045   -5870.4578   -5203.1037 
   57000    3939.2215    369.55799    379.56017    322.76358   -609.58639   -286.82281   -265.01726    12.322494    4738.1506   -1246.6006    105.03167    130.85962    401.12289            0    637.01418   -5997.0737   -31.145075      15.7932      15.7932      15.7932            0            0            0   -676.19287   -2276.6083   -2390.3167    2331.2779    692.05714   -1884.6545 
   58000    3939.2215    352.94932   -1936.0063    308.25794   -594.29598   -286.03803   -397.26064   -21.870233    4782.8624   -1230.7308    103.94854    126.53993    405.94636            0    636.43484    -5991.723   -31.145075      15.7932      15.7932      15.7932            0            0            0    4553.8811    2701.8869    14.297718   -215.69242   -2374.2231   -3218.1035 
   59000    3939.2215     368.4088    -829.9441     321.7599    -618.7329     -296.973   -344.65287     5.051291    4746.1493   -1244.7703    101.00133    115.11616     409.9199            0    626.03739   -5995.9709   -31.145075      15.7932      15.7932      15.7932            0            0            0    1987.5484    -5078.748    927.46978   -600.66022    4416.2152   -6305.3873 
   60000    3939.2215     370.3802   -2402.7952    323.48167   -615.13272   -291.65105   -429.69044   -9.9426593    4753.3066   -1246.0368    96.258149    137.45548    397.19047            0     630.9041   -5989.4008   -31.145075      15.7932      15.7932      15.7932            0            0            0    3855.7126    4736.4944    2933.0241   -3013.4548    986.25252   -5181.1832 
   61000    3939.2215     397.5866     7909.154    347.24313   -622.46597   -275.22284    179.15414    7.9575433    4751.0944   -1234.1485    82.424729     125.5022    403.75563            0    611.68256   -5993.2004   -31.145075      15.7932      15.7932      15.7932            0            0            0     2378.566     4733.782   -1378.2243    4253.4221    5010.4154    14463.624 
   62000    3939.2215    377.96737   -1993.2286    330.10814   -632.75898   -302.65084   -417.16084   -26.026566    4753.5816   -1270.0402    104.59694    134.12956    398.55468            0    637.28118   -5997.5952   -31.145075      15.7932      15.7932      15.7932            0            0            0    2435.9326   -411.44564     5519.027   -1946.7756    133.27196   -4166.1821 
   63000    3939.2215    381.09222    1893.0519    332.83731    -615.1246   -282.28729   -173.53239    17.840538    4717.8964   -1256.1261    102.09971    139.56224    399.33951            0    641.00146    -5991.863   -31.145075      15.7932      15.7932      15.7932            0            0            0    968.82941    676.38355   -756.00178    3033.8154    1575.8929    1069.4474 
   64000    3939.2215    357.37693    794.29546    312.12491   -641.79893   -329.67402   -284.04214    5.5144164    4732.3665   -1260.5592    94.016931     126.9025    397.84085            0    618.76027   -5998.4401   -31.145075      15.7932      15.7932      15.7932            0            0            0   -144.70967    1335.3332     2459.146    606.81106    4215.0724   -2438.9971 
   65000    3939.2215    346.14696    2924.4227    302.31691   -573.90361    -271.5867   -103.58006    19.284533    4756.5831   -1220.8138    106.32049    141.86791    398.72176            0    646.91016   -5996.6814   -31.145075      15.7932      15.7932      15.7932            0            0            0    5603.8507    2538.6377   -125.69501    5282.0289    272.06901    3219.1702 
   66000    3939.2215    387.66453    7142.3669    338.57742   -603.16901   -264.59159    145.73385    26.242376    4728.2782   -1235.2121    99.089408    130.79413    402.15953            0    632.04307   -5989.7326   -31.145075      15.7932      15.7932      15.7932            0            0            0    3905.0453   -337.34061    624.89855    9987.1812    6751.0105    4688.9091 
   67000    3939.2215    356.86088   -2220.3052    311.67421   -594.97235   -283.29814   -410.85358    -27.56827    4778.6587   -1239.7569    102.81038    135.77783    406.19635            0    644.78456   -5990.8474   -31.145075      15.7932      15.7932      15.7932            0            0            0    -1084.107    484.35996       1181.2    -2239.727    1612.6341   -6033.8227 
   68000    3939.2215    358.78887   -3893.0078    313.35807   -627.99755   -314.63948   -538.29085   -15.805892    4732.8362   -1271.8473    104.72945    140.97415    398.14612            0    643.84972   -5988.8776   -31.145075      15.7932      15.7932      15.7932            0            0            0    5222.5079    575.38417   -1586.0428   -1725.6733   -510.04846   -9443.3016 
   69000    3939.2215     367.9157   -4509.3157    321.32923   -604.12105   -282.79181   -541.84977   -2.6615035    4752.9152   -1245.2474    108.02626    132.22191    400.87819            0    641.12636   -5995.5011   -31.145075      15.7932      15.7932      15.7932            0            0            0   -6475.6012    368.45385    394.08886   -5873.7724    774.45717   -8428.6317 
   70000    3939.2215     370.9995   -307.05053    324.02256   -571.45785    -247.4353    -265.0752     7.677825    4739.5749   -1244.7858    112.42714     157.4386    403.46224            0    673.32799   -5992.0386   -31.145075      15.7932      15.7932      15.7932            0            0            0    340.41672   -127.20146   -1851.9929   -1572.1208   -4889.1333    5540.1025 
   71000    3939.2215     363.4806   -464.02093    317.45572   -621.88711   -304.43139   -331.08916    9.0891488    4709.2962   -1280.1095    106.41316    148.41258    403.39663            0    658.22237   -5998.4948   -31.145075      15.7932      15.7932      15.7932            0            0            0   -534.92997    1931.8685   -1777.1845     88.09366    827.21343   -2307.3699 
   72000    3939.2215    367.25137   -3090.3453    320.74903   -639.42663    -318.6776   -496.21641    -20.21496    4739.6284   -1275.5123    96.565319    145.67853     393.8418            0    636.08565   -5994.9257   -31.145075      15.7932      15.7932      15.7932            0            0            0   -1490.9462    481.25201    74.394788    20.755069   -6854.9875   -2436.8034 
   73000    3939.2215    375.02537    2807.9003    327.53866   -643.87211   -316.33345   -155.02097    5.7355848    4713.2437   -1275.1957    99.124379      127.421    404.77817            0    631.32355   -5994.1749   -31.145075      15.7932      15.7932      15.7932            0            0            0    696.93917   -188.35883   -3956.4838    13373.942   -1898.3679   -3051.8732 
   74000    3939.2215    399.73053   -2948.6706    349.11559   -603.29155   -254.17596   -423.57562   -9.4481003    4762.3517   -1248.4542    115.26972    123.98883    405.90409            0    645.16263   -6001.3578   -31.145075      15.7932      15.7932      15.7932            0            0            0   -23.255517   -403.43711   -1487.7006   -601.48096   -506.26079     -7738.27 
   75000    3939.2215    353.06595   -1040.8361    308.35981   -620.93472   -312.57492   -372.37043   -4.3197351    4762.6467   -1237.2473    100.52257     116.8511    398.93891            0    616.31258   -5995.5743   -31.145075      15.7932      15.7932      15.7932            0            0            0    418.66333    741.24402    1061.7869    -142.1784    1355.0331   -4335.3629 
   76000    3939.2215    373.71035   -1578.0758    326.39015   -597.66223   -271.27208   -361.93176    23.396163    4753.4146   -1218.5435     111.2272    105.69447    403.95958            0    620.88124   -5995.3542   -31.145075      15.7932      15.7932      15.7932            0            0            0    2535.5701    657.13121   -705.57094    1647.0718    539.31578    -6920.615 
   77000    3939.2215    377.43737    4460.0637    329.64525   -597.67953   -268.03428   -11.805824     26.83317    4740.4914   -1223.6736    97.328886    124.68032    403.98485            0    625.99406   -5990.9981   -31.145075      15.7932      15.7932      15.7932            0            0            0   -2328.0337    391.31706   -4374.8907    9208.5708    1753.0462    2418.5741 
   78000    3939.2215    374.51381   -5001.9287    327.09188   -612.17475   -285.08287    -572.4412   -10.286919     4738.364   -1262.9446    109.01401     139.2303    402.52551            0    650.76982   -5991.0216   -31.145075      15.7932      15.7932      15.7932            0            0            0    5218.2498    184.30822   -1158.0783   -5082.2095   -6100.2359   -3823.3406 
   79000    3939.2215     374.5387    1566.1926    327.11362   -618.79524   -291.68162   -201.70463   -8.7918481    4766.1435   -1244.2052    101.39935    117.29889    406.71171            0    625.40995   -6001.5568   -31.145075      15.7932      15.7932      15.7932            0            0            0    1145.2467   -792.12858   -553.01904    4154.2874    2049.5772   -1505.2869 
   80000    3939.2215    365.15284   -3733.7546    318.91622   -606.04536   -287.12914    -501.6315    -15.18035     4771.604   -1239.7355    100.84052    127.43318    405.41642            0    633.69013   -5996.1591   -31.145075      15.7932      15.7932      15.7932            0            0            0   -7334.0336   -1370.9504   -1604.7762   -2289.3291   -1930.0675   -6981.8672 
   81000    3939.2215    384.95845    1245.7322    336.21399   -616.27301   -280.05902   -208.49232   -5.6643828    4756.0342   -1241.4854    91.868179    128.73057    404.61364            0    625.21239   -5991.8552   -31.145075      15.7932      15.7932      15.7932            0            0            0   -3423.5288    299.57574    2686.0321    3673.1169    169.07849   -104.99874 
   82000    3939.2215    352.17347   -9501.5087    307.58033   -600.02148   -292.44115   -838.29813    0.6367739    4747.5056   -1244.3966    107.32446    131.63548    405.41515            0    644.37509    -5992.539   -31.145075      15.7932      15.7932      15.7932            0            0            0    -1932.774   -1496.7851   -2075.8255   -7588.4992   -14487.977   -6428.0503 
   83000    3939.2215     364.7139    184.16613    318.53285   -618.82003   -300.28717   -289.70692    15.217906    4715.6046   -1264.2923    102.88911    141.90376    400.67944            0    645.47231   -5995.1148   -31.145075      15.7932      15.7932      15.7932            0            0            0    1248.9272    556.17827   -3260.4448   -3277.4783    4646.2897     -816.313 
   84000    3939.2215    358.06242     720.6298    312.72361   -637.62271   -324.89911   -283.49928    2.7171484    4711.4277   -1278.5631    96.924164    138.88269    405.13353            0    640.94038   -5992.7079   -31.145075      15.7932      15.7932      15.7932            0            0            0    3162.8701    1014.7932   -759.36673    4196.9307    3308.7896    -5343.831 
   85000    3939.2215    359.01055    2054.8198    313.55168   -610.96895   -297.41727   -179.36889    12.880392    4751.0535   -1230.9089    107.17002    109.49601    403.27393            0    619.93995   -5994.8428   -31.145075      15.7932      15.7932      15.7932            0            0            0    2370.6357   -2681.0786   -1953.7019   -627.86313    3443.5822    3348.7403 
   86000    3939.2215    375.85755    3036.2748    328.26547   -617.79711   -289.53163   -115.09915    14.723783    4749.1686   -1232.2983    97.738418    122.78305    393.97975            0    614.50123   -5996.1907   -31.145075      15.7932      15.7932      15.7932            0            0            0    5103.0194    5440.4091    2756.3515    4310.5287    4003.9225     794.3732 
   87000    3939.2215    392.31382     3614.422      342.638   -613.77057   -271.13257   -63.485819    8.3900666    4741.5644   -1243.0018    99.289633    131.24339    398.69823            0    629.23125   -5992.9563   -31.145075      15.7932      15.7932      15.7932            0            0            0   -2164.7151    1099.5543   -7.5283621    1565.3779    2516.2079    6761.6801 
   88000    3939.2215    367.95739   -5329.3517    321.36565   -570.28741   -248.92176   -555.09038    8.1478521    4749.2869   -1232.9913    119.85478    146.96717    395.88194            0    662.70389    -5990.426   -31.145075      15.7932      15.7932      15.7932            0            0            0    3064.0003   -1800.7191     1140.731   -4219.5199   -6578.4708   -5190.0645 
   89000    3939.2215    364.98999   -1064.9363    318.77399   -602.31348   -283.53949   -344.71956   -23.072049     4788.836   -1231.0123    93.951207    135.00854     399.7391            0    628.69884   -5996.7763   -31.145075      15.7932      15.7932      15.7932            0            0            0   -5692.8003   -2241.8345    2842.1486      2239.68    -6233.203    798.71397 
   90000    3939.2215    351.15636   -3810.0186    306.69201   -621.45688   -314.76487   -533.64856    4.4245604    4728.5232   -1264.0213    109.88023    132.27255    400.41161            0    642.56439   -5996.9691   -31.145075      15.7932      15.7932      15.7932            0            0            0   -841.14134    1018.7786   -2564.9354   -2118.8201   -4178.1985   -5133.0374 
   91000    3939.2215    353.35808   -2082.9958    308.61494   -613.99222   -305.37728   -425.04436    1.1749804    4733.4012   -1261.6243     105.0439    138.55664    404.03157            0    647.63211   -5996.2005   -31.145075      15.7932      15.7932      15.7932            0            0            0   -1920.6256    5434.1352    4462.6476   -2696.0678    3533.7309   -7086.6504 
   92000    3939.2215    399.86483   -6437.6305    349.23288   -592.37767   -243.14479   -612.98347    1.8923785    4761.9578   -1231.1713     102.2429    132.81944    403.73129            0    638.79364   -5995.0215   -31.145075      15.7932      15.7932      15.7932            0            0            0   -119.35817    3894.9375    115.08488    -5192.893   -8492.1701   -5627.8284 
   93000    3939.2215    395.95389    1160.8404    345.81716   -626.38723   -280.57007   -213.88036    34.374362    4679.2464   -1283.3037    102.18408    154.78684    399.94557            0    656.91649   -5996.9245   -31.145075      15.7932      15.7932      15.7932            0            0            0   -696.42317    1071.5179   -1486.6607   -3911.7122    2144.3004    5249.9331 
   94000    3939.2215    376.17488    1279.0592    328.54261   -627.82285   -299.28024   -225.79892    7.4304916    4737.4133   -1249.7214    102.94688    121.38544    397.56624            0    621.89856   -5994.5652   -31.145075      15.7932      15.7932      15.7932            0            0            0    764.20482    1429.4545   -3297.1438   -1218.7753     2393.835     2662.118 
   95000    3939.2215     398.6672   -4357.7461     348.1869   -624.92854   -276.74164   -527.09199    5.6895107    4700.5248   -1285.2642    103.99854    149.54611    406.79106            0     660.3357   -5991.4785   -31.145075      15.7932      15.7932      15.7932            0            0            0    2581.9355    2246.7598   -1385.6031   -5625.8021   -4425.6373   -3021.7989 
   96000    3939.2215    337.78982   -4674.2928    295.01798   -614.55107    -319.5331   -588.06891    10.283367    4726.7118   -1259.9792    105.35349    132.11916    407.95544            0    645.42809   -5996.9744   -31.145075      15.7932      15.7932      15.7932            0            0            0    1896.9258    3440.0927    1201.8203   -6999.8804   -7664.0585    641.06043 
   97000    3939.2215    361.39213   -471.91381    315.63169    -610.2593   -294.62761   -321.73883  -0.17363253    4754.6532   -1237.8508    94.115319     137.0207    396.45544            0    627.59146   -5992.3303   -31.145075      15.7932      15.7932      15.7932            0            0            0    2032.9113   -786.76382    5048.7589   -2119.0661    635.41279    67.911853 
   98000    3939.2215    399.89901   -1032.5208    349.26273   -643.50357   -294.24084   -353.55865   -8.3545332    4729.1829    -1271.781     90.92664    140.21259    397.13816            0    628.27739   -5992.6093   -31.145075      15.7932      15.7932      15.7932            0            0            0    1957.6611    608.89888   -4224.4697   -3259.4299    -2333.875    2495.7425 
   99000    3939.2215    351.95195    821.09965    307.38686   -608.41616    -301.0293   -253.85753    14.746614    4727.7239   -1250.4457    98.506596    136.50409    407.01885            0    642.02953   -5992.9162   -31.145075      15.7932      15.7932      15.7932            0            0            0    409.90599    -1314.368    1038.0288    1866.1652   -179.83114    776.96491 
  100000    3939.2215    363.94184    2894.3719    317.85856   -614.32753   -296.46896   -130.18873   -3.3473714    4728.8097   -1271.6339    106.30059    142.27722    408.72856            0    657.30637   -5997.0962   -31.145075      15.7932      15.7932      15.7932            0            0            0    5709.9082    1648.7198    3833.5578    -466.8136    6900.8076    2249.1218 
  101000    3939.2215    367.32785   -3230.6408    320.81582   -573.66601   -252.85019   -438.44891    16.776279     4733.131   -1240.3301    127.62976    135.28128    403.75301            0    666.66404   -5990.2373   -31.145075      15.7932      15.7932      15.7932            0            0            0    335.18285    1867.0724    3754.3436   -4124.3356   -407.56943   -5160.0175 
  102000    3939.2215    337.62652   -3556.1487    294.87535    -615.6405   -320.76515   -525.06413     5.946305    4713.9916   -1272.9084    121.58508    136.97128     398.7115            0    657.26787   -5992.8463   -31.145075      15.7932      15.7932      15.7932            0            0            0    346.86514    -2224.791   -4180.3932   -6273.8228   -4722.9994    328.37608 
  103000    3939.2215    365.58935    1926.3064    319.29746   -635.23547   -315.93801   -205.27266   -6.6386779    4725.4288    -1277.638    104.83368    138.76015    398.80866            0    642.40249   -5996.4281   -31.145075      15.7932      15.7932      15.7932            0            0            0   -315.36749   -717.62253    5584.3167    4472.4313   -2001.5089    3307.9969 
  104000    3939.2215    377.40503   -996.91959      329.617   -590.99953   -261.38253   -318.65507   -11.993075    4786.2033   -1221.8676     96.94845    130.41824    403.50142            0    630.86811   -5996.0779   -31.145075      15.7932      15.7932      15.7932            0            0            0   -269.34356    1271.6983   -3284.4265    896.19182    705.85748   -4592.8081 
  105000    3939.2215    371.66453    3940.0299    324.60338   -605.97402   -281.37064   -55.017868    9.8160932     4753.332    -1236.669    111.44157    119.25651    399.99686            0    630.69494   -5999.8171   -31.145075      15.7932      15.7932      15.7932            0            0            0   -137.38141    3165.1347   -3213.5034    4770.2096    795.36353    6254.5167 
  106000    3939.2215    356.62913    2102.6326    311.47181   -602.13462   -290.66282   -169.86761    19.678073    4713.5321   -1259.1829    112.94173    141.51824    402.58834            0    657.04831   -5992.3931   -31.145075      15.7932      15.7932      15.7932            0            0            0   -661.80194    2699.9588   -602.08133     849.3635   -2276.2418    7734.7762 
  107000    3939.2215    342.37458    3672.5273     299.0222   -626.91164   -327.88944   -116.90456    11.453877    4743.2122   -1243.1744    97.742039    113.61863    404.90209            0    616.26276   -5997.8405   -31.145075      15.7932      15.7932      15.7932            0            0            0    2758.4494    2632.8192    2270.8413    2175.2169    6792.8762    2049.4887 
  108000    3939.2215    370.78395   -1420.5342     323.8343   -621.83004   -297.99573   -379.60472   -20.831245    4771.0215   -1245.0682    102.16481    122.25069    398.82265            0    623.23815   -5995.2585   -31.145075      15.7932      15.7932      15.7932            0            0            0    -173.6796    1129.1332    905.97192   -894.08095     107.9725   -3475.4942 
  109000    3939.2215    354.73325    638.10855    309.81598   -593.92747   -284.11149   -247.45247     4.171648    4739.4862   -1250.1606    116.82388    134.98895    404.42029            0    656.23312   -5993.8184   -31.145075      15.7932      15.7932      15.7932            0            0            0   -859.73692    142.85747     930.8058    4662.6305   -2256.2617   -492.04321 
  110000    3939.2215    351.45092   -2136.6024    306.94927    -576.2812   -269.33193   -392.07868   -3.9949446    4793.5558   -1205.2785    116.77289    112.63557     399.5888            0    628.99726   -5994.8393   -31.145075      15.7932      15.7932      15.7932            0            0            0    1867.9582    7492.2413     695.3235    2189.6688   -832.14177   -7767.3343 
  111000    3939.2215    389.33552    3389.1674    340.03682   -670.80075   -330.76394   -136.05794    12.813909    4679.1099   -1303.0503    91.715959    138.79434     401.7392            0     632.2495    -5994.974   -31.145075      15.7932      15.7932      15.7932            0            0            0   -227.61057   -2860.0089    2227.3259    2383.0779    2016.1863     5768.238 
  112000    3939.2215    359.65445    999.06429    314.11404   -626.27277   -312.15873   -254.76298    36.712267    4669.3302     -1289.54    122.73616    136.96928    403.56176            0     663.2672   -5995.5824   -31.145075      15.7932      15.7932      15.7932            0            0            0   -1293.5085    -2922.937     2847.007   -1274.2376   -3374.9814    7646.4119 
  113000    3939.2215    367.72886    -2302.031    321.16606    -621.5966   -300.43054   -432.68109    -4.044859    4745.3403    -1256.061    100.48952    125.27924    408.69569            0    634.46445   -5997.3565   -31.145075      15.7932      15.7932      15.7932            0            0            0    2845.0294    1102.0843    324.07214   -2938.5586   -2563.7698   -1403.7647 
  114000    3939.2215     374.4148    6214.5442    327.00541   -601.02777   -274.02237    83.000126    3.6448653    4733.5895   -1258.2021    111.78773    134.06007    411.32653            0    657.17433   -5995.4365   -31.145075      15.7932      15.7932      15.7932            0            0            0    3516.1202   -1740.9103    -8379.653    4966.6362    7588.4793    6088.5172 
  115000    3939.2215    366.37952    1255.2622    319.98758   -613.08878   -293.10121   -220.98701    -9.287416    4762.1045   -1241.9903    99.923022    128.46014    400.51833            0     628.9015   -5994.8074   -31.145075      15.7932      15.7932      15.7932            0            0            0    2074.3466   -1161.3873   -6100.1588   -1307.0184    3228.9709    1843.8342 
  116000    3939.2215    344.63202   -3076.5537    300.99379   -647.75669    -346.7629   -523.50939   -22.678873     4743.685   -1271.3899    99.762078     123.4293    400.44178            0    623.63316   -5992.3959   -31.145075      15.7932      15.7932      15.7932            0            0            0   -410.80075    994.07073    13.248696   -4186.7523   -4210.8931   -832.01587 
  117000    3939.2215     341.1432   -336.96965    297.94674   -577.28366   -279.33692   -298.69566     22.52039    4726.2956   -1244.0329    123.43173    141.43847    401.87906            0    666.74926   -5992.8489   -31.145075      15.7932      15.7932      15.7932            0            0            0    58.602366   -1215.7247   -1756.9423   -3808.0826    4093.9199   -1296.7462 
  118000    3939.2215     359.5269   -2873.4828    314.00265    -622.3395   -308.33685   -473.41702     47.89885    4659.0051   -1288.1684    107.30628    155.62147     402.9012            0    665.82895   -5995.0724   -31.145075      15.7932      15.7932      15.7932            0            0            0   -40.317352    5324.2879   -900.02826   -7577.9059    4118.8964   -5161.4389 
  119000    3939.2215    344.14142   -308.83259    300.56532   -608.08292    -307.5176   -325.25988  0.042581838     4735.796   -1262.0065    121.68507    127.57661    404.66189            0    653.92357    -5997.845   -31.145075      15.7932      15.7932      15.7932            0            0            0    4931.2136     250.9223   -3644.2643   -4898.6069   -3354.1785    7326.2876 
  120000    3939.2215    360.92652   -679.79926    315.22505   -604.14247   -288.91742   -327.97155    10.710116     4735.774   -1246.3136    111.38417    130.89691    399.89004            0    642.17112   -5992.7978   -31.145075      15.7932      15.7932      15.7932            0            0            0    5188.7862    2188.5022    477.23818    3.1127677   -1435.0471   -607.46343 
  121000    3939.2215    341.10223   -1661.4721    297.91096   -599.98883   -302.07787   -397.52862   -2.6919921    4743.8246   -1252.1525    110.23721    142.49736    399.42912            0    652.16369   -5993.2852   -31.145075      15.7932      15.7932      15.7932            0            0            0    3062.9942    656.91339      1537.96   -8515.8051    3387.6496    143.73936 
  122000    3939.2215    390.65415   -3039.8543    341.18849   -569.95839   -228.76991   -403.40804   -17.440052    4798.3105   -1217.2169    114.26902    138.71702    394.27244            0    647.25848   -5998.0873   -31.145075      15.7932      15.7932      15.7932            0            0            0   -100.40882   -1308.5259    3758.9424   -4523.0411    372.06066   -4968.5825 
  123000    3939.2215    378.68103    -866.6496    330.73144   -611.43246   -280.70102   -330.48961   -3.0696386      4737.46   -1256.8606    98.759226    139.03049    407.63838            0    645.42809   -5991.2509   -31.145075      15.7932      15.7932      15.7932            0            0            0   -2448.7781    1357.8863    2654.6421   -3838.5111    3881.5551   -2642.9928 
  124000    3939.2215    364.69141   -1534.3677    318.51322   -608.72184   -290.20862   -378.35729   0.46716081    4742.9714   -1249.7052    119.74886    118.64861    402.58589            0    640.98336   -5993.1437   -31.145075      15.7932      15.7932      15.7932            0            0            0   -4465.0696   -3650.4632    -1245.297    986.36211   -5204.4333   -385.03207 
  125000    3939.2215    396.54236    1364.0032    346.33111   -641.55661    -295.2255   -216.86419   -7.9134303    4730.0894   -1276.5889    106.04421     132.5568    396.43125            0    635.03226   -5998.7648   -31.145075      15.7932      15.7932      15.7932            0            0            0    2130.7624    5840.1528    478.62609    2288.0613    691.06667    1112.8817 
  126000    3939.2215    397.40115    246.85737    347.08116   -607.94083   -260.85967   -246.67784    12.132769    4734.8563   -1248.8888    100.69972    135.35077    404.89752            0      640.948   -5995.8779   -31.145075      15.7932      15.7932      15.7932            0            0            0    4327.0691   -3991.8171    2047.9253    2081.2546   -2862.0637    1521.3812 
  127000    3939.2215    359.56122    -3336.851    314.03263   -558.79203    -244.7594   -436.45984   -24.309487    4777.9468   -1238.7976    129.06197    148.69463    402.24901            0    680.00561    -5992.435   -31.145075      15.7932      15.7932      15.7932            0            0            0    428.63789    724.11101    984.55336   -5913.6885   -1157.5832   -2939.2813 
  128000    3939.2215    350.12586   -751.12366    305.79199   -615.13759    -309.3456   -352.49728   -5.5644407    4757.9009   -1246.7443    100.66167    133.33465    397.61041            0    631.60674   -5999.0808   -31.145075      15.7932      15.7932      15.7932            0            0            0   -1622.6809    3216.2554    1348.2313   -2610.6357   -1886.4414    2243.7061 
  129000    3939.2215    385.89275   -1099.0361    337.02998    -604.1733   -267.14332    -330.2824   0.95629162    4746.6464   -1247.0083    106.87684    135.70991    400.24823            0    642.83498    -5994.611   -31.145075      15.7932      15.7932      15.7932            0            0            0    81.572804   -1734.0774    384.75185    2997.1951   -3721.2285   -2573.0748 
  130000    3939.2215    358.45114    6363.6233    313.06311    -624.7956   -311.73249    53.854525   -2.7179062    4739.2036    -1258.674     102.3566    125.31387    406.20795            0    633.87842   -5995.1597   -31.145075      15.7932      15.7932      15.7932            0            0            0   -920.67231    1403.1426   -851.10711    5177.4409    8140.5483    5772.8809 
  131000    3939.2215    359.01065    -3150.772    313.55177   -585.22394   -271.67217   -452.68246   -4.3009024    4779.2723   -1218.0938    121.11921    112.53264    399.21805            0     632.8699   -5993.0653   -31.145075      15.7932      15.7932      15.7932            0            0            0   -1503.3755   -1659.1415    3855.5576       747.55   -5943.5306   -4256.3354 
  132000    3939.2215    385.35297    3452.6647    336.55856    -582.7977   -246.23915   -47.885266    16.461115    4742.3775   -1231.2698    119.27825    118.45712    410.73674            0    648.47211   -5990.1084   -31.145075      15.7932      15.7932      15.7932            0            0            0     1450.373   -3985.9105    5123.1196    4184.3028    6524.0476   -350.35615 
  133000    3939.2215    366.18863    2338.5783    319.82086   -641.96088   -322.14002   -187.78986    12.685931    4715.8273   -1268.8401    100.01814    128.24863    398.61248            0    626.87925   -5997.3533   -31.145075      15.7932      15.7932      15.7932            0            0            0   -4555.4882    -153.8892    620.67396   -2337.5145    7768.8485     1584.401 
  134000    3939.2215    376.03806   -1648.2527    328.42312   -615.32524   -286.90212   -381.59343    10.057806    4718.2615   -1265.0633    111.31003    132.78414    405.64391            0    649.73808   -5993.3826   -31.145075      15.7932      15.7932      15.7932            0            0            0    3325.8396   -128.13448    2551.7154   -3431.3413   -3784.1012    2270.6843 
  135000    3939.2215    401.07559    1473.3134    350.29034   -607.29524   -257.00491   -172.36378    22.420631    4714.4626    -1259.574    119.76124    133.83995    398.67752            0    652.27871   -5996.4572   -31.145075      15.7932      15.7932      15.7932            0            0            0   -2702.7534   -4149.4954   -6384.2567    2821.0591    6586.9924   -4988.1114 
  136000    3939.2215    397.97997   -655.57384    347.58669    -606.1124   -258.52571   -296.18811   -3.8157609    4761.5645   -1237.5185    108.32407    121.01268    402.06939            0    631.40613   -5995.2672   -31.145075      15.7932      15.7932      15.7932            0            0            0    -2777.003   -3532.8269   -1793.0708   -122.33838   -2925.1251     1080.742 
  137000    3939.2215    387.40426    1986.1654     338.3501    -607.6455    -269.2954   -155.19118   -6.5416055     4764.094   -1239.3323    105.94369    123.23086    402.51221            0    631.68676   -5996.8846   -31.145075      15.7932      15.7932      15.7932            0            0            0    1122.9591    2460.9583   -3095.6269     1991.669    -5.101288    3971.9284 
  138000    3939.2215    349.29959   -3048.7365    305.07035   -608.38035      -303.31    -478.4584   -12.964643    4762.9541   -1245.6634    106.80253    133.51094    396.96963            0     637.2831   -5995.6529   -31.145075      15.7932      15.7932      15.7932            0            0            0   -3691.8413   -4132.5051   -2858.3833   -6421.7209    2955.2276   -5679.7161 
  139000    3939.2215    364.84564   -2344.3855    318.64792   -590.02294   -271.37503   -406.05881     3.360348    4737.5418   -1252.9285     105.8731     159.2419    397.79058            0    662.90557   -5993.8306   -31.145075      15.7932      15.7932      15.7932            0            0            0   -5361.9868   -1855.4986    5344.0669   -3302.2351   -6593.9633     2863.042 
  140000    3939.2215    386.20992   -2892.1438    337.30699   -574.95337   -237.64637   -403.79861   -8.7241185    4778.2235   -1221.3473    114.08624    134.73597    397.57175            0    646.39397   -5990.8467   -31.145075      15.7932      15.7932      15.7932            0            0            0    628.52837    1391.6568   -5893.1683   -5443.4462    -1796.152   -1436.8332 
  141000    3939.2215    371.28375    591.63195    324.27082   -612.94171   -288.67089   -254.68193    15.909714    4708.7199   -1268.0543    112.81274    143.18401    399.11586            0    655.11261   -5992.6839   -31.145075      15.7932      15.7932      15.7932            0            0            0    3357.7348   -3564.6573    6618.8264   -3790.0207    1884.3918    3680.5247 
  142000    3939.2215    383.45968   -546.20325      334.905   -627.51367   -292.60867   -323.98778    2.6515233    4709.9246   -1282.6448    100.98799     141.1682    412.97489            0    655.13108   -5995.2209   -31.145075      15.7932      15.7932      15.7932            0            0            0   -980.78295   -1463.5014   -1161.9896   -2022.7826   -2139.3455    2523.5183 
  143000    3939.2215    387.17747    230.37937    338.15203    -591.3234   -253.17137   -239.93619   -15.111956    4743.1696   -1264.0789    122.84096    145.80344    404.11107            0    672.75547   -5992.1365   -31.145075      15.7932      15.7932      15.7932            0            0            0   -3348.9791   -1991.6784    3490.0513    2868.5963   -2061.4122   -116.04596 
  144000    3939.2215    347.54491   -1835.9752    303.53785   -612.03063   -308.49278   -413.96864    1.6115787    4742.1276   -1246.3178    114.69613    120.18801    399.40298            0    634.28712    -5990.057   -31.145075      15.7932      15.7932      15.7932            0            0            0    963.34884    3962.4453   -552.46605   -3653.7346   -746.80638   -1107.3845 
  145000    3939.2215    358.08448    229.04233    312.74287   -599.92499   -287.18213   -274.02376   -17.192727    4768.8211   -1239.9063    103.37971    140.48297    396.11863            0    639.98131   -5991.5346   -31.145075      15.7932      15.7932      15.7932            0            0            0   -4152.9346   -126.07749    3218.9652   -2833.8618    8.5273155    3512.4614 
  146000    3939.2215    362.45881   -5444.3932    316.56331    -581.8692   -265.30589   -578.08358   -19.485202     4769.206   -1249.5049    118.26781    138.38917    410.97873            0     667.6357   -5999.2257   -31.145075      15.7932      15.7932      15.7932            0            0            0    1376.3129    8.4297627   -1538.4273   -5036.1875   -4214.1426   -7082.8495 
  147000    3939.2215    390.10363   -6699.1931    340.70767   -621.67396   -280.96628   -665.83161   -33.051396    4762.2688   -1268.0923     104.2539    143.83087    398.33355            0    646.41832   -5997.3096   -31.145075      15.7932      15.7932      15.7932            0            0            0    814.72358   -2249.6492    -4386.032   -5899.6326   -6048.7848   -8149.1619 
  148000    3939.2215    429.87761   -3468.8205    375.44536   -610.68814   -235.24278    -434.5248   -12.894189    4756.9601   -1251.6809      108.129    128.47653    404.38728            0    640.99281   -5995.7468   -31.145075      15.7932      15.7932      15.7932            0            0            0   -12.173524    2155.0113    1347.3278   -4295.9797   -3483.4269   -2627.0549 
  149000    3939.2215    348.15707   -1998.1074     304.0725   -643.77125   -339.69875   -454.48903   -5.4417535    4746.4618   -1258.0262    94.009965    115.60038     404.6446            0    614.25494   -5999.0462   -31.145075      15.7932      15.7932      15.7932            0            0            0   -3632.9359    1002.4393    -4937.754   -2610.0195   -541.53402   -2842.7687 
  150000    3939.2215    404.05066    3425.5664    352.88869   -631.35227   -278.46358   -81.666484   -6.9863075    4746.8488    -1257.694    98.287546    129.55458     398.4996            0    626.34172   -5997.5565   -31.145075      15.7932      15.7932      15.7932            0            0            0   -2835.2695     2933.134    615.15532   -107.56839    6340.1177    4044.1498 
  151000    3939.2215     378.4085   -1472.6826    330.49341   -582.51562   -252.02221    -336.6271   -11.347896    4779.9309   -1229.1459    115.48847    130.81616    400.32567            0     646.6303    -5997.729   -31.145075      15.7932      15.7932      15.7932            0            0            0   -515.69784   -173.31483    400.54453   -1019.6923   -2112.9644   -1285.3911 
  152000    3939.2215    359.55897    2034.7505    314.03066   -602.17638   -288.14572   -171.25031    22.360159    4710.6723   -1264.3176    113.36689    138.34505    410.42925            0    662.14119     -5997.35   -31.145075      15.7932      15.7932      15.7932            0            0            0   -3067.5886    1169.4759    3663.8455    1357.1102     1243.563    3503.5784 
  153000    3939.2215    389.76907    6129.9208    340.41547   -636.25087   -295.83539    56.325524   -6.2039189    4730.7967   -1274.8081    89.057631    147.19344    402.30615            0    638.55721   -5999.4008   -31.145075      15.7932      15.7932      15.7932            0            0            0   -2779.5055   -308.94241    1369.1562    4068.8209    6345.3872    7975.5542 
  154000    3939.2215    376.92843   -8425.7014    329.20076   -578.85984   -249.65908   -733.71146   -4.6848556    4753.5117   -1242.1263    120.67372    137.84884    404.74395            0    663.26651   -5990.9532   -31.145075      15.7932      15.7932      15.7932            0            0            0    898.85048    1607.1468   -878.05516   -13480.568   -10144.641   -1651.8956 
  155000    3939.2215    347.77724   -925.49184    303.74076   -609.17415   -305.43339   -358.60244    12.619542    4725.4514   -1258.2041    108.67643    136.36815    403.98533            0    649.02991    -5996.275   -31.145075      15.7932      15.7932      15.7932            0            0            0    1306.9138    1654.0371   -4947.8333   -88.529555    1358.0514   -4045.9973 
  156000    3939.2215    373.89978   -155.14189     326.5556   -606.24966   -279.69406   -288.60688    17.996404    4722.6115   -1253.4968     111.3418    133.88459    402.02072            0    647.24711   -5994.1047   -31.145075      15.7932      15.7932      15.7932            0            0            0   -1272.5974   -946.39482   -1389.0768   -1727.4157   -3141.1389    4403.1289 
  157000    3939.2215    384.40521    2386.4052     335.7308   -558.19184   -222.46104   -85.363238    2.0637842    4784.3399   -1203.5279    112.47162    136.78465    396.07974            0    645.33601   -5989.9316   -31.145075      15.7932      15.7932      15.7932            0            0            0   -1747.3342    1904.3039   -2670.1115   -2529.2295    10026.862   -338.41659 
  158000    3939.2215    335.25511   -2738.2153    292.80422   -588.45036   -295.64614   -452.95526   -12.757433    4764.4292   -1240.5541    112.94499    140.98228    398.17646            0    652.10374   -5992.2258   -31.145075      15.7932      15.7932      15.7932            0            0            0    1905.8162      511.906   -445.37519   -5893.7269   -111.42776   -2209.4912 
  159000    3939.2215    379.78668   -2121.3922    331.69708   -627.40652   -295.70944   -417.58237    27.163394    4696.3645   -1269.1293    112.07061    136.43671     393.2155            0    641.72282   -5992.6573   -31.145075      15.7932      15.7932      15.7932            0            0            0   -2532.0313    2469.8748   -1603.0587    404.04407   -1215.0562   -5553.1643 
  160000    3939.2215    383.21718   -1879.4838     334.6932   -644.34658   -309.65338   -417.62879    24.953388    4680.2902   -1291.2564    106.05369    136.29425    404.56185            0    646.90979   -5996.4999   -31.145075      15.7932      15.7932      15.7932            0            0            0    3609.7037    2184.6334    823.57249     809.8803   -7347.8173    899.48554 
  161000    3939.2215    365.96653    4627.3627    319.62687   -596.57426   -276.94739   -11.107686   -16.812429    4767.9522   -1244.6703    111.07535    127.46153    409.55911            0      648.096     -5995.81   -31.145075      15.7932      15.7932      15.7932            0            0            0    473.94256   -419.01937   -2642.8819    7168.8773    5356.9043    1356.3066 
  162000    3939.2215     361.6064   -2187.8726    315.81884   -578.38868   -262.56984   -388.26203    2.9406397    4764.8547   -1221.8497    115.83496    126.98747    400.63864            0    643.46107   -5989.6451   -31.145075      15.7932      15.7932      15.7932            0            0            0   -6052.9858   -510.57424    3849.1404    2131.3722   -5167.7585   -3527.2313 
  163000    3939.2215    364.88238    3221.7371    318.68001   -608.44382   -289.76381   -104.67661     8.616287    4753.6909    -1232.143    97.350281    133.67873    392.67017            0    623.69918   -5994.4502   -31.145075      15.7932      15.7932      15.7932            0            0            0   -189.06525    6593.6431    30.814784    2866.6828    5485.3328    1313.1957 
  164000    3939.2215    368.98231   -608.65518    322.26079   -605.02687   -282.76608   -317.73302    15.164588    4699.5011   -1276.9983    114.36266    158.00227    399.60653            0    671.97146    -5991.664   -31.145075      15.7932      15.7932      15.7932            0            0            0    571.69911   -2013.1695    1959.9502    1195.6956   -1909.5322   -1112.1289 
  165000    3939.2215    356.61295    780.05371    311.45767   -597.65254   -286.19487   -241.38117   -16.950257     4762.654    -1244.266     104.7082    142.25389    399.65135            0    646.61344   -5989.9697   -31.145075      15.7932      15.7932      15.7932            0            0            0   -1645.4816     1097.266    2701.9332    2314.1457   -2380.6534    2406.6689 
  166000    3939.2215    355.01166    945.03587    310.05914   -593.27211   -283.21297   -228.92112   -3.7479734    4769.5976   -1225.4378    98.365516    132.57989    401.22033            0    632.16574   -5991.2875   -31.145075      15.7932      15.7932      15.7932            0            0            0    3564.9666   -1220.6483    1805.6857    629.94768   -4811.2913    7016.4512 
  167000    3939.2215    405.43777   -2746.6635    354.10017   -589.76886   -235.66869   -393.46315   -3.1099139    4732.7417   -1262.7294     120.5003    143.01824    409.44201            0    672.96055   -5992.3612   -31.145075      15.7932      15.7932      15.7932            0            0            0   -1523.9173   -2075.3545   -68.209333   -2147.0252    2511.9409   -8604.9062 
  168000    3939.2215    346.50689   -2027.5067    302.63127   -610.19946   -307.56819   -424.04745   -8.8745338     4740.968   -1264.2842    116.29967    129.90102    407.88405            0    654.08473   -5996.3776   -31.145075      15.7932      15.7932      15.7932            0            0            0    4641.0445    5931.7122    1814.3468   -3864.2443   -3249.7032    1031.4274 
  169000    3939.2215    375.80776   -1203.2343    328.22199   -610.12444   -281.90245   -351.02767    1.6514555     4741.141   -1250.7151    93.266982    146.35907    400.96463            0    640.59068   -5993.5076   -31.145075      15.7932      15.7932      15.7932            0            0            0    391.36149   -2500.3671    1321.4403    2944.9911   -2555.3434   -3999.3508 
  170000    3939.2215    345.28933   -3378.5216    301.56788   -574.49976   -272.93188   -467.02628   -16.083255    4770.2388   -1235.4411    104.82203    157.31674    398.80254            0    660.94131   -5989.5966   -31.145075      15.7932      15.7932      15.7932            0            0            0   -2144.2871    1274.3331   -1134.6686   -2965.9752   -10798.561    3628.9709 
  171000    3939.2215    395.41186   -4003.8592    345.34376   -617.10219   -271.75843   -501.77816   -6.2102627    4720.8417   -1276.2067     110.2972    144.09245     404.7149            0    659.10454   -5990.8381   -31.145075      15.7932      15.7932      15.7932            0            0            0   -6453.0986     1497.994   -3907.7748   -467.40996   -3723.3264   -7820.8412 
  172000    3939.2215    401.80962    1909.3355    350.93142   -626.56913   -275.63771   -165.94733    5.9032168    4721.0965   -1264.8697    107.98105    132.03184    398.28767            0    638.30056   -5991.8694   -31.145075      15.7932      15.7932      15.7932            0            0            0    4095.3875    1320.0235   -885.46566    741.98769    3897.7775    1088.2411 
  173000    3939.2215    370.71742    853.11505    323.77619   -625.59319   -301.81699   -252.80595    21.205594    4714.2748    -1260.721    107.37285    130.03814    397.71684            0    635.12783   -5996.2014   -31.145075      15.7932      15.7932      15.7932            0            0            0   -1055.5441    5.0759558    3914.2484    4776.9017    92.646961   -2310.2035 
  174000    3939.2215    370.79807    1632.4497    323.84663   -612.21699   -288.37036   -194.58693   0.51956659    4747.0793   -1250.9865     102.4846    131.91031    404.37463            0    638.76954   -5998.5854   -31.145075      15.7932      15.7932      15.7932            0            0            0   -1102.7701   -1385.0983    612.00713    2469.7655    694.64933    1732.9342 
  175000    3939.2215    349.35418   -4025.6428    305.11802   -616.26046   -311.14244   -542.41362   -12.807278    4775.0749   -1230.4271    92.896761    119.29267     401.9772            0    614.16663   -5992.6947   -31.145075      15.7932      15.7932      15.7932            0            0            0    610.50581    1836.8928    -1275.341   -4917.5868    1735.5536   -8894.8953 
  176000    3939.2215    372.96702    642.50634    325.74095   -577.93625    -252.1953   -215.28363    -11.81501     4797.322   -1210.1127    106.85826    122.32466    402.99356            0    632.17648   -5995.6197   -31.145075      15.7932      15.7932      15.7932            0            0            0    3868.5141   -1340.4111   -6606.2662   -2576.5065    1285.6549    3218.3706 
  177000    3939.2215     368.9841    1837.2434    322.26235   -581.12693   -258.86458   -153.31585    8.6683746    4726.4284   -1256.4976    101.19103     168.9245    405.25511            0    675.37064   -5991.5943   -31.145075      15.7932      15.7932      15.7932            0            0            0    919.28185    2488.5113   -2884.8357    3063.2697    1720.0758    728.38467 
  178000    3939.2215    380.75656   -1876.0132    332.54415   -585.55318   -253.00903   -360.78506    -4.182113    4754.2887   -1245.8171    122.05333    133.71316    404.49743            0    660.26392   -5995.9237   -31.145075      15.7932      15.7932      15.7932            0            0            0   -941.46442   -233.26358    -3061.388    4983.9356   -5807.3145   -4804.6605 
  179000    3939.2215    373.12977   -9059.9581    325.88309   -627.17254   -301.28945   -821.77957   -5.1238668    4723.7794   -1276.1334    112.00969    135.31475    401.63645            0    648.96089    -5994.789   -31.145075      15.7932      15.7932      15.7932            0            0            0     768.8098    5304.6411   -560.61265   -5313.9298   -10595.425   -11270.519 
  180000    3939.2215    374.45015   -92.572235    327.03627   -600.85176   -273.81549   -279.13371    10.368498     4739.275    -1249.019    117.93162     129.1291    401.10649            0    648.16721   -5998.6625   -31.145075      15.7932      15.7932      15.7932            0            0            0    1908.1808    4864.0718   -2467.8968    698.38351   -2591.4374    1615.3372 
  181000    3939.2215    364.96115   -2414.3961     318.7488   -609.03187   -290.28307   -428.98893    26.395305    4717.1148   -1249.3676    113.45234    130.16109    396.72232            0    640.33574   -5992.8777   -31.145075      15.7932      15.7932      15.7932            0            0            0   -136.83714    311.52166   -2110.4457    2076.0475   -7712.1024   -1607.1335 
  182000    3939.2215    407.47254    7079.6802    355.87729   -589.22735   -233.35006    173.37406    12.953498    4744.0815   -1237.0514    101.34938    141.81938    404.65525            0    647.82401   -5994.0863   -31.145075      15.7932      15.7932      15.7932            0            0            0    1050.2649    66.173475   -280.77477    4739.6591    11514.848    4984.5335 
  183000    3939.2215    398.00638   -3126.6235    347.60975   -597.31578   -249.70603   -429.32901   -11.158326     4768.842   -1233.1267    115.78435    115.04623    404.98032            0     635.8109   -5990.8104   -31.145075      15.7932      15.7932      15.7932            0            0            0    3108.1629    2922.0674   -5315.5153   -5691.3896   -5042.5889    1354.1079 
  184000    3939.2215    374.08452    1548.7278    326.71695   -616.92571   -290.20876   -201.23511      -10.592    4752.6324   -1255.0842    107.44855    127.17715    403.53276            0    638.15846   -5997.1246   -31.145075      15.7932      15.7932      15.7932            0            0            0    1531.9875   -1617.2287    1589.5122   -2081.0897    2734.0596    3993.2134 
  185000    3939.2215    344.79624     4184.989    301.13723   -594.33133   -293.19411   -52.768554    27.442186    4734.0562   -1230.0106    100.20453     129.7926    405.68212            0    635.67925    -5991.509   -31.145075      15.7932      15.7932      15.7932            0            0            0   -450.54555   -1774.0904     2248.491    6766.2777    5655.3431    133.34638 
  186000    3939.2215    368.29034   -394.87684    321.65644   -619.76619   -298.10975   -320.79523   -16.990562    4758.4144   -1256.4782    94.931392    139.79201    401.98858            0    636.71198    -5997.902   -31.145075      15.7932      15.7932      15.7932            0            0            0   -793.85169   -853.20132   -3569.2237   -4055.1473     981.3874    1889.1294 
  187000    3939.2215    356.68866   -1321.1766     311.5238   -625.67638   -314.15258   -390.05353   -23.992889    4751.0701   -1267.5248    103.76755    136.06842    402.01245            0    641.84842   -5994.6021   -31.145075      15.7932      15.7932      15.7932            0            0            0    823.44758   -1406.5048    3142.5454   -4187.2925   -1987.2707    2211.0335 
  188000    3939.2215    364.75464    1951.1913    318.56844   -606.73551   -288.16707   -176.07209    20.378007    4714.9855   -1260.6776     106.5169    150.51817    396.90702            0    653.94209   -5996.0411   -31.145075      15.7932      15.7932      15.7932            0            0            0    2062.3681   -2412.5968   -1942.4423   -4889.4221    8148.8288    2594.1674 
  189000    3939.2215    380.29345   -4229.5166    332.13969   -594.83324   -262.69356    -505.6772   -3.2050938    4757.9421   -1238.4319    116.99421    129.04668    397.55776            0    643.59865   -5993.1689   -31.145075      15.7932      15.7932      15.7932            0            0            0    1181.6159   -1371.9213   -3006.7709   -3114.7685   -2591.5681   -6982.2133 
  190000    3939.2215     361.7285    1380.4004    315.92548   -614.88434   -298.95887   -219.65554    2.2051003    4736.9883   -1252.6311    111.53225    121.63794    404.57659            0    637.74678   -5991.8246   -31.145075      15.7932      15.7932      15.7932            0            0            0   -4581.3252     1953.705    6778.1071     3847.621    1607.9903     -1314.41 
  191000    3939.2215    345.41396   -2790.6868    301.67673   -610.44354   -308.76681   -469.09038   -9.4727082    4744.6021   -1253.6976    105.85378    137.91314    399.48719            0     643.2541    -5988.827   -31.145075      15.7932      15.7932      15.7932            0            0            0    2424.6969    2267.8655   -2358.3516   -1131.0908    -6099.156   -1141.8135 
  192000    3939.2215    367.11902    1544.4578    320.63344    -598.1555   -277.52206   -188.79372     7.439401    4759.4964   -1232.7871    105.97821    123.09838    405.55499            0    634.63158   -5999.7228   -31.145075      15.7932      15.7932      15.7932            0            0            0    386.21504     3790.457    1140.7838   -4804.2543   -844.32105    10281.949 
  193000    3939.2215    365.49816     3364.735    319.21781   -617.34078   -298.12296    -104.8206       3.8378    4732.9035   -1261.1581    103.77026    130.23993    409.80709            0    643.81727   -5997.8993   -31.145075      15.7932      15.7932      15.7932            0            0            0   -2442.5088    2013.4794   -1327.6114    4154.2265    4160.8963    1779.0824 
  194000    3939.2215    403.42541   -2504.6274    352.34261   -612.91562     -260.573    -404.4626    4.1094077    4728.5366   -1261.5976    103.53292    137.55282    407.59621            0    648.68195   -5994.2436   -31.145075      15.7932      15.7932      15.7932            0            0            0   -1171.8412   -4360.3974   -2765.7268   -992.23087   -2454.5388   -4067.1124 
  195000    3939.2215     373.4532     3675.172    326.16557   -593.15115   -266.98558    -55.84877    16.603839    4729.6243   -1248.7428    113.18902    136.89399    405.50861            0    655.59163   -5994.9709   -31.145075      15.7932      15.7932      15.7932            0            0            0   -2422.2958   -2148.5807   -743.75023    3818.5637    4987.1264    2219.8259 
  196000    3939.2215    388.92769   -869.81211    339.68063   -614.19683    -274.5162   -324.48648    22.533375    4702.8748   -1265.9798     101.6138    145.44707    404.72212            0    651.78299    -5991.388   -31.145075      15.7932      15.7932      15.7932            0            0            0    4860.7969   -922.20275    2119.0363   -4926.8963   -1694.1561     4011.616 
  197000    3939.2215    394.47793   -135.53981    344.52809   -611.71687   -267.18878   -274.97547    9.5515961     4739.985   -1242.8168    103.70206    123.09373    404.30415            0    631.09994   -5992.3534   -31.145075      15.7932      15.7932      15.7932            0            0            0   -757.32212    1452.9888    937.34786    1494.0999    771.97288   -2672.6923 
[...]
 9955000    3939.2215    379.63609   -247.80868    331.56556   -585.34328   -253.77772   -268.01421     12.74048    4739.1047   -1245.1026    105.30459    150.87738    403.57734            0    659.75931   -5996.9477   -31.145075      15.7932      15.7932      15.7932            0            0            0    4744.3549    798.94793   -2170.2244   -780.51025    292.90978   -255.82558 
 9956000    3939.2215    368.60871    5292.2946     321.9345   -610.92415   -288.98965    15.050054    16.002201     4726.269   -1253.6118     106.2414    142.21514    394.23113            0    642.68767    -5995.883   -31.145075      15.7932      15.7932      15.7932            0            0            0    2333.7534   -3377.9126      1919.09    14365.819    387.67207    1123.3931 
 9957000    3939.2215    390.43182   -2907.6022    340.99431   -604.98581    -263.9915   -431.03181    4.8538544    4730.1686   -1258.7805    106.06605    144.95263    402.77605            0    653.79473    -5993.803   -31.145075      15.7932      15.7932      15.7932            0            0            0    307.16747   -3685.5246     974.6347   -3187.1201   -2148.3879   -3387.2985 
 9958000    3939.2215    351.65449    2766.6511    307.12707   -612.63945   -305.51239   -146.56965    -12.74102    4784.3634    -1224.433    102.74812      109.878    399.16743            0    611.79355   -5996.0553   -31.145075      15.7932      15.7932      15.7932            0            0            0    1425.7081    626.04956   -3923.6269    5407.3359   -1445.6455     4338.263 
 9959000    3939.2215    354.65656   -912.83331    309.74901    -584.5901   -274.84109   -327.28292    2.4057312    4745.9137   -1247.8417    112.63586    143.56997    407.04574            0    663.25158   -5996.1611   -31.145075      15.7932      15.7932      15.7932            0            0            0   -3717.1203   -299.91505    2061.8167   -913.17475    509.73044   -2335.0556 
 9960000    3939.2215    358.99219    -2291.125    313.53564   -630.85129   -317.31564   -448.93964   -10.559709    4728.9315   -1280.5481    98.647606    142.57758    408.47165            0    649.69684   -5998.9199   -31.145075      15.7932      15.7932      15.7932            0            0            0    2550.6843   -3100.2912    2022.3149   -2759.8821    -5421.469    1307.9761 
 9961000    3939.2215    368.35928   -4018.0132    321.71665   -598.42929   -276.71264   -507.54551   -7.7306417    4757.7755    -1244.569    113.72359    130.87592    401.54024            0    646.13976   -5994.6139   -31.145075      15.7932      15.7932      15.7932            0            0            0   -1501.9898    5493.7267    231.57259   -10290.299   -4746.0989    2982.3588 
 9962000    3939.2215    365.69481   -1703.1335    319.38957   -615.73903   -296.34946   -394.19364   -1.4632188    4727.0145   -1272.0861    100.29454    156.15698    399.89559            0    656.34711   -5997.6374   -31.145075      15.7932      15.7932      15.7932            0            0            0   -271.26794   -1478.5006    131.13101   -3164.4472    2952.9769   -4897.9301 
 9963000    3939.2215    382.69206    2435.5572    334.23458   -619.11847   -284.88389   -144.96234   -8.2265399    4753.5977   -1250.2367    92.393272    136.22295    402.50205            0    631.11827   -5995.6079   -31.145075      15.7932      15.7932      15.7932            0            0            0   -5724.3237    2280.9585   -2118.2608      7181.54    847.46918   -722.33775 
 9964000    3939.2215    357.69132   -404.65449     312.3995   -642.36301   -329.96351   -353.21071    8.5024566    4723.1486    -1267.684     98.48113    128.49172    398.34817            0    625.32102   -5999.3351   -31.145075      15.7932      15.7932      15.7932            0            0            0   -427.20744   -4088.5445   -2092.1856   -1819.9686    1549.9962   -943.99105 
 9965000    3939.2215     382.2051   -2388.6413    333.80928    -610.5448   -276.73552   -413.96178    17.710174    4728.4505    -1249.969    108.12408     133.1673    398.13283            0    639.42421   -5996.1297   -31.145075      15.7932      15.7932      15.7932            0            0            0   -749.51939   -1411.8066    1162.5737    568.35812    -3591.573   -4142.7091 
 9966000    3939.2215    364.02123    881.75647    317.92789   -612.01657   -294.08868    -243.4322   -7.8325953    4758.5794   -1244.0821    95.436138    147.42285    389.20652            0    632.06551   -5994.8289   -31.145075      15.7932      15.7932      15.7932            0            0            0    1697.4782   -1887.8856    2581.1507   -5569.7868    7253.0884    961.96784 
 9967000    3939.2215    358.80053   -889.45111    313.36825   -618.42161   -305.05336   -356.15188   -12.644566    4761.8985   -1244.3962    102.45631    128.32153    395.19673            0    625.97457   -5993.6501   -31.145075      15.7932      15.7932      15.7932            0            0            0   -2001.6976   -3651.4363   -166.38263    5592.9949   -3221.6761   -5039.6722 
 9968000    3939.2215    368.30417    -1662.929    321.66852   -643.09826   -321.42974   -416.96419    12.332837    4708.9157   -1274.5574    110.22402     126.7908    394.44435            0    631.45917    -5995.806   -31.145075      15.7932      15.7932      15.7932            0            0            0    30.819699    3141.8877    1772.0621   -687.40318   -8397.7234    4096.3395 
 9969000    3939.2215    385.37063   -418.79016    336.57397   -611.65365   -275.07967   -299.13896   -19.020846    4755.5873   -1254.1724    96.648227    145.87546    399.99509            0    642.51878   -5990.7389   -31.145075      15.7932      15.7932      15.7932            0            0            0   -186.10981    2420.4172    4216.4041    974.23331    228.07946   -2458.6833 
 9970000    3939.2215    379.12284    1308.4197     331.1173   -578.99613   -247.87883   -172.71077    19.833108    4740.9491   -1234.3761    108.50242    149.44583    397.43175            0    655.37999   -5995.1584   -31.145075      15.7932      15.7932      15.7932            0            0            0    -93.19993   -2234.3636     1797.122   -2824.7432    7232.7294   -482.72691 
 9971000    3939.2215    383.39456   -3236.0727    334.84812   -582.14886   -247.30074   -433.21152   -6.6851645    4735.0189   -1269.6241    117.91675    165.35555    404.20293            0    687.47523   -5997.9578   -31.145075      15.7932      15.7932      15.7932            0            0            0    1658.6403    -2548.201   -2338.9409    -253.5051   -230.17085    -9224.542 
 9972000    3939.2215    396.32566    5618.7017    346.14185   -626.37647   -280.23462    42.557017    11.183835    4720.1115   -1263.4852    110.05003    127.44926    399.60941            0     637.1087   -5994.7805   -31.145075      15.7932      15.7932      15.7932            0            0            0     246.8692    -497.7628   -472.17839     3969.283    10921.619    1965.2031 
 9973000    3939.2215    397.58901    3091.9635    347.24523   -611.84009   -264.59486   -86.963084    32.507688     4711.709   -1252.1022    96.177665    140.71556    403.36888            0    640.26211   -5996.3188   -31.145075      15.7932      15.7932      15.7932            0            0            0   -3552.7549    1827.2884   -2513.7416    3348.4855    2098.7139    3828.6911 
 9974000    3939.2215    351.91338   -3173.5185    307.35317    -637.3628   -330.00963    -512.3267     2.063836    4711.7293   -1278.5913    111.94753    127.78627     401.4947            0     641.2285   -5992.3845   -31.145075      15.7932      15.7932      15.7932            0            0            0    4193.5921    2106.4116    1456.4034   -6596.8373   -5729.1209    2805.4025 
 9975000    3939.2215    361.34309    2012.1441    315.58887   -587.01317   -271.42429   -155.82761   -24.637246    4789.5633   -1230.8902    106.49578    138.80607    398.57521            0    643.87705   -5995.8162   -31.145075      15.7932      15.7932      15.7932            0            0            0   -3139.7426    1442.4669   -451.30438    6269.6493    2755.6975   -2988.9145 
 9976000    3939.2215    340.45281   -3436.3936    297.34377   -576.91475   -279.57097   -476.99009   -19.987141    4782.4288   -1231.9846    106.35149    141.95849    406.75983            0    655.06981   -5994.4262   -31.145075      15.7932      15.7932      15.7932            0            0            0    314.67448   -1306.4757   -275.76204   -923.70782   -13865.911    4480.4381 
 9977000    3939.2215    375.33249   -6821.0838    327.80689   -598.27809    -270.4712   -662.33909    11.063201    4722.1193   -1262.1627    122.72142    141.14606    400.01713            0    663.88461   -5995.3452   -31.145075      15.7932      15.7932      15.7932            0            0            0   -6.8368038   -3358.8717   -4447.0954   -8359.3559   -5590.0284    -6513.867 
 9978000    3939.2215    384.80426    2615.1749    336.07932   -596.79918   -260.71986   -110.47935   -22.464578    4769.9568   -1247.6755    111.66228    137.02037    402.19368            0    650.87633   -5995.1677   -31.145075      15.7932      15.7932      15.7932            0            0            0    2842.2444   -1316.0012   -3496.5787    2576.3589    1164.1678     4104.998 
 9979000    3939.2215     381.1164    -576.3674    332.85843    -627.7871   -294.92868    -328.0407   0.15214378    4736.3171   -1256.5948    93.159811    133.43367    402.21426            0    628.80774   -5993.0641   -31.145075      15.7932      15.7932      15.7932            0            0            0   -2115.6436    694.10431    228.27154    1254.4135   -2153.2221   -830.29355 
 9980000    3939.2215    381.10739    1798.3811    332.85056    -620.9528   -288.10224   -184.78614   -21.456033    4788.3102   -1232.6226    93.995088    121.53053    396.14418            0     611.6698   -5999.4768   -31.145075      15.7932      15.7932      15.7932            0            0            0   -3001.9045    3097.5356    2085.2558   -1824.8705    3292.5593    3927.4545 
 9981000    3939.2215    364.70728   -456.23891    318.52708   -631.46769   -312.94061   -339.15131    -2.382751    4746.9467   -1251.2372    90.884721    128.81534    400.06942            0    619.76948   -5995.8011   -31.145075      15.7932      15.7932      15.7932            0            0            0     482.0744    5554.9523    2670.4211   -1838.5385   -1362.1277    1831.9495 
 9982000    3939.2215    383.81248    5324.1124    335.21312   -621.38162    -286.1685    19.699121   -10.311084    4741.4281   -1265.4384    107.99293     138.5126    397.55125            0    644.05678   -5996.5555   -31.145075      15.7932      15.7932      15.7932            0            0            0    2975.7032    2927.0296   -3306.2936    6071.1288    8195.8451    1705.3632 
 9983000    3939.2215    393.14631   -1479.2105    343.36508   -577.87372   -234.50864   -319.48855    5.5363961    4758.5622   -1229.9756    114.41281    140.10428    397.58482            0     652.1019   -5994.0743   -31.145075      15.7932      15.7932      15.7932            0            0            0    1469.4148    530.41719    4305.3008   -783.19142    3851.3372   -7505.7774 
 9984000    3939.2215    384.14853   -2112.2616    335.50662   -577.77742    -242.2708   -363.61918    1.9497384    4751.0179   -1239.7845    113.69117    156.57061    391.74534            0    662.00712   -5992.7521   -31.145075      15.7932      15.7932      15.7932            0            0            0    982.67021     129.9086    1270.6787    1673.8096   -5237.9341   -2772.6602 
 9985000    3939.2215    381.38521   -1830.0301     333.0932   -603.45588   -270.36268     -375.497   -12.925364    4776.3131   -1233.8206    103.87623    128.79576    397.69273            0    630.36473   -5997.2083   -31.145075      15.7932      15.7932      15.7932            0            0            0   -477.37312    1075.9692   -1415.7967   -700.08961   -3538.0921   -1251.9086 
 9986000    3939.2215    371.75049   -3061.3253    324.67845   -587.53409   -262.85564   -438.72726   0.25376359    4743.0056   -1247.1898    116.97138    137.09298    405.59133            0    659.65569   -5990.4492   -31.145075      15.7932      15.7932      15.7932            0            0            0   -6626.4043    1632.4412   -4409.3813    -201.6048    -5351.868    -3630.503 
 9987000    3939.2215     361.2908    2528.2989     315.5432   -641.01205   -325.46886   -180.21933    1.7785938    4716.8013   -1276.9924    94.777471    142.78926    398.41359            0    635.98032   -5995.5722   -31.145075      15.7932      15.7932      15.7932            0            0            0    1206.2497    237.74621    -2951.277   -6187.5804    6965.1276    6807.3495 
 9988000    3939.2215    367.87802   -2098.3037    321.29633   -642.59996   -321.30363   -441.85014    10.683659    4704.2964   -1276.7175    104.05336    127.12138    402.94277            0     634.1175   -5991.6975   -31.145075      15.7932      15.7932      15.7932            0            0            0    538.43194   -848.61025   -2713.1713    970.58279   -3148.3988   -4117.0951 
 9989000    3939.2215    353.22698    3098.1911    308.50044   -615.79705   -307.29661   -129.30706   -1.5618651     4744.142   -1250.2061    92.735692    142.53953    399.13385            0    634.40907   -5992.7862   -31.145075      15.7932      15.7932      15.7932            0            0            0   -896.52918    4218.5115   -200.03251    1234.6384    2057.6249    6002.3101 
 9990000    3939.2215    363.06503   -3287.5221    317.09277   -586.20466   -269.11189   -457.97841   -15.604463    4760.1735   -1242.7739    110.16757    142.27885    404.12282            0    656.56924   -5987.3429   -31.145075      15.7932      15.7932      15.7932            0            0            0   -334.71357   -769.76458   -2009.1367    4304.6443   -6842.5659   -7324.6448 
 9991000    3939.2215    378.02696    4277.1937    330.16018   -588.52273   -258.36255   -12.639889   -10.673471    4742.1128   -1260.6729    113.62879     151.9598    406.56159            0    672.15017   -5992.1122   -31.145075      15.7932      15.7932      15.7932            0            0            0    168.46501    1857.8038   -2641.4829     886.4145    3039.1333    8906.0333 
 9992000    3939.2215    355.45928   -3851.2342    310.45008   -573.89173   -263.44165   -484.69315   -4.7106789    4758.8686   -1246.1837    126.17789    142.32034    403.79372            0    672.29196   -6000.3416   -31.145075      15.7932      15.7932      15.7932            0            0            0   -3312.4973   -3215.1664    2925.9205   -4040.9694   -3079.8242   -4432.9091 
 9993000    3939.2215    366.95099   -3371.4688    320.48668   -622.42851   -301.94183   -495.63105    28.241605    4689.9455   -1275.3627    111.55064    141.98095     399.4026            0     652.9342   -5993.5498   -31.145075      15.7932      15.7932      15.7932            0            0            0   -2782.0498   -3676.3398   -3775.0772   -1414.7149   -2590.2174    -6109.474 
 9994000    3939.2215     405.3408   -772.51345    354.01547   -598.58873   -244.57326   -288.95378    4.3992259    4734.6868   -1260.8544    106.82002     151.8402    403.60543            0    662.26565   -5999.9404   -31.145075      15.7932      15.7932      15.7932            0            0            0   -782.01274   -2666.3741   -401.64592    4285.0632   -1326.9031   -5275.7005 
 9995000    3939.2215    387.73087    6103.4257    338.63536   -609.32997   -270.69461     79.94418    5.9548758    4750.7743   -1236.2619     94.43151    129.64625    402.85416            0    626.93192    -5992.991   -31.145075      15.7932      15.7932      15.7932            0            0            0    2084.8686   -739.40474      -2624.1    2938.6675    8568.5482    6803.0615 
 9996000    3939.2215    368.79228     1211.066    322.09482   -598.39953   -276.30471   -206.72956   -13.687161    4759.6635    -1248.976    105.36282    148.01098     397.2027            0     650.5765   -5994.9524   -31.145075      15.7932      15.7932      15.7932            0            0            0     1265.071   -3743.6494   -1648.9029    7817.1001   -3820.8679   -363.03417 
 9997000    3939.2215    339.78923    992.31704    296.76421   -603.11051    -306.3463   -249.33817    24.207653    4702.8233     -1262.34    110.59507    151.09563    397.53883            0    659.22953    -5989.371   -31.145075      15.7932      15.7932      15.7932            0            0            0   -6715.0605     -3854.64    3025.5667    4982.5322   -1144.4227   -861.15838 
 9998000    3939.2215    359.58637    4922.4196    314.05459   -614.76315   -300.70856   -17.917991    20.019251    4707.3161   -1267.8036    103.67046    145.50316    403.86681            0    653.04043   -5995.1389   -31.145075      15.7932      15.7932      15.7932            0            0            0   -2736.5322    1828.2581    4612.7007    6342.8905    4433.5096    3990.8586 
 9999000    3939.2215     363.8318   -1348.7748    317.76245   -603.52443   -285.76197   -363.24842    8.6712002    4740.1564   -1243.9335     108.7317    124.08254    407.59487            0    640.40911   -5992.7611   -31.145075      15.7932      15.7932      15.7932            0            0            0    1556.4904   -2477.8389    183.08793    2606.4154   -1644.6842   -5008.0555 
10000000    3939.2215    374.65226   -4187.3953     327.2128   -609.85912   -282.64633   -523.21012    3.9157423    4741.6397   -1245.2266    110.28242    123.85438    401.23072            0    635.36751   -5990.7821   -31.145075      15.7932      15.7932      15.7932            0            0            0   -604.15509   -3720.7718    1795.1611   -2389.3636    1043.0706   -11215.893 
Loop time of 5257.95 on 4 procs for 10000000 steps with 294 atoms

Performance: 164.322 ns/day, 0.146 hours/ns, 1901.880 timesteps/s
93.0% CPU use with 4 MPI tasks x 1 OpenMP threads

MPI task timing breakdown:
Section |  min time  |  avg time  |  max time  |%varavg| %total
---------------------------------------------------------------
Pair    | 1318.3     | 1442.1     | 1580.5     | 256.1 | 27.43
Bond    | 125.12     | 125.76     | 126.87     |   5.9 |  2.39
Kspace  | 2527.5     | 2669.5     | 2802.6     | 196.8 | 50.77
Neigh   | 163.22     | 163.3      | 163.45     |   0.7 |  3.11
Comm    | 717.57     | 726.08     | 729.5      |  18.3 | 13.81
Output  | 3.2423     | 3.2968     | 3.4565     |   5.1 |  0.06
Modify  | 56.957     | 57.369     | 58.004     |   5.7 |  1.09
Other   |            | 70.53      |            |       |  1.34

Nlocal:    73.5 ave 78 max 68 min
Histogram: 1 0 0 0 1 0 0 0 1 1
Nghost:    1616.25 ave 1643 max 1595 min
Histogram: 2 0 0 0 0 0 0 1 0 1
Neighs:    8339.75 ave 9415 max 7247 min
Histogram: 1 0 0 0 1 1 0 0 0 1

Total # of neighbors = 33359
Ave neighs/atom = 113.466
Ave special neighs/atom = 4.87755
Neighbor list builds = 415697
Dangerous builds = 0


write_restart   restart.${NAME}
write_restart   restart.mol
PPPM initialization ...
  using 12-bit tables for long-range coulomb (src/kspace.cpp:332)
  G vector (1/distance) = 0.3803
  grid = 12 12 12
  stencil order = 5
  estimated absolute RMS force accuracy = 0.0233741
  estimated relative force accuracy = 7.03904e-05
  using double precision KISS FFT
  3d grid and FFT values/proc = 3211 432
write_data	data.*
PPPM initialization ...
  using 12-bit tables for long-range coulomb (src/kspace.cpp:332)
  G vector (1/distance) = 0.3803
  grid = 12 12 12
  stencil order = 5
  estimated absolute RMS force accuracy = 0.0233741
  estimated relative force accuracy = 7.03904e-05
  using double precision KISS FFT
  3d grid and FFT values/proc = 3211 432
Total wall time: 1:27:38
