LAMMPS data file via write_data, version 3 Mar 2020, timestep = 10000000

341 atoms
8 atom types
274 bonds
5 bond types
389 angles
8 angle types
420 dihedrals
6 dihedral types

0.0000000000000000e+00 1.6584299999999999e+01 xlo xhi
0.0000000000000000e+00 1.6584299999999999e+01 ylo yhi
0.0000000000000000e+00 1.6584299999999999e+01 zlo zhi

Masses

1 6.941
2 16
3 19
4 12.01
5 32.06
6 14.01
7 16
8 1.008

Pair Coeffs # lj/cut/coul/long

1 0.0182661 2.126
2 0.209859 2.96
3 0.0609584 3.118
4 0.109326 3.4
5 0.249833 3.564
6 0.169886 3.25
7 0.155323 3.165
8 0 0

Bond Coeffs # harmonic

1 492.67 1.466
2 363.556 1.344
3 248.733 1.782
4 256.929 1.752
5 529.23 1.012

Angle Coeffs # harmonic

1 41.2526 108.48
2 45.27 121.88
3 43.0716 107.06
4 81.1647 109.67
5 71.2115 107.16
6 39.3938 103.12
7 109.646 119.18
8 37.9249 113.24

Dihedral Coeffs # charmm

1 0.143897 3 0 0
2 0.143897 3 0 0
3 0.499666 3 180 0
4 6.79545 1 180 0
5 0.499666 3 180 0
6 6.79545 1 180 0

Atoms # full

111 21 6 -5.8799999999999997e-01 2.8904997068383436e+00 6.2737071614771578e+00 6.4467030989261058e+00 -1 0 0
108 21 5 9.1100000000000003e-01 3.0762570578549289e+00 7.9479840294637487e+00 6.8797317756818961e+00 -1 0 0
137 23 4 3.1900000000000001e-01 1.1938438747266678e+00 6.3626171968252985e+00 1.8601971846659746e+00 0 -1 0
49 17 2 -4.6100000000000002e-01 4.2482283771337599e+00 1.4276818946220600e+00 4.6592069214316592e+00 0 0 0
48 17 5 9.1100000000000003e-01 4.1260264182851962e+00 1.1666564691510373e+00 3.2030936003315622e+00 0 0 0
115 21 2 -4.6100000000000002e-01 3.4214221331301387e+00 3.7779367412165006e+00 6.7013909949692403e+00 -1 0 0
47 17 4 3.1900000000000001e-01 3.1094430627868141e+00 2.4045464752667121e+00 2.2992999015279794e+00 0 0 0
143 23 3 -1.3800000000000001e-01 1.8570139371128129e+00 5.7897389163883739e+00 2.8868246581773556e+00 0 -1 0
114 21 5 9.1100000000000003e-01 4.0490217974980931e+00 5.0548794689560612e+00 6.9171996262324820e+00 -1 0 0
14 14 1 8.0000000000000004e-01 2.6345685371823491e+00 1.7332080972155046e+00 6.6272377584051556e+00 0 0 0
46 17 3 -1.3800000000000001e-01 1.8306666363246884e+00 2.5571298586407849e+00 2.8724867335119240e+00 0 0 0
53 17 3 -1.3800000000000001e-01 3.7259713432921924e+00 3.6296744452826695e+00 2.3432974266263504e+00 0 0 0
304 55 8 4.0999999999999998e-01 1.1578726081994393e+00 5.3887829101181168e+00 6.1720780889215776e+00 2 2 -1
116 21 3 -1.3800000000000001e-01 4.9383352832960430e+00 5.8313802195409110e+00 4.6438337211823493e+00 -1 0 0
50 17 3 -1.3800000000000001e-01 2.8822777768035817e+00 1.9839635947126075e+00 1.0429995093975102e+00 0 0 0
105 21 2 -4.6100000000000002e-01 4.1217506404630013e+00 8.0406437959636570e+00 7.9205248338742527e+00 -1 0 0
138 23 5 9.1100000000000003e-01 2.2822720152231608e+00 6.6459292613644241e+00 3.7694529432350582e-01 0 -1 0
135 23 2 -4.6100000000000002e-01 3.4934775494798083e+00 7.4475042685689496e+00 6.5461497219055109e-01 0 -1 0
239 33 8 4.0999999999999998e-01 4.5408643545688694e+00 8.1427352570320544e+00 3.6711069142237660e+00 0 0 -1
225 29 7 -8.1999999999999995e-01 7.3709398684666871e-01 1.8609123260313931e+00 5.7537823845922107e+00 -2 0 -1
226 29 8 4.0999999999999998e-01 1.0177090641780198e-02 1.3932500305860425e+00 6.3582302059698721e+00 -2 0 -1
303 55 7 -8.1999999999999995e-01 3.2260424835600543e-01 4.8027848943917686e+00 5.9812712001453514e+00 2 2 -1
140 23 3 -1.3800000000000001e-01 6.2221986449021160e-01 7.4829373340766390e+00 2.4067935385407782e+00 0 -1 0
136 23 3 -1.3800000000000001e-01 2.2981556557548571e-01 5.4899728150855678e+00 1.5981316047374023e+00 0 -1 0
305 55 8 4.0999999999999998e-01 4.0220470349939175e-01 3.9177112034103052e+00 6.4997772050310108e+00 2 2 -1
176 25 3 -1.3800000000000001e-01 5.3288291077464356e+00 1.8001090748058473e+00 7.5354301029150470e+00 -1 0 -1
227 29 8 4.0999999999999998e-01 2.9545195786038403e-01 2.5988344102117567e+00 5.1730101981206706e+00 -2 0 -1
110 21 3 -1.3800000000000001e-01 4.1268399422078877e-01 8.1912008332859756e+00 6.9663685776053077e+00 -1 0 0
118 21 4 3.1900000000000001e-01 5.4360046903910417e+00 5.5693771569152970e+00 5.8508249341715315e+00 -1 0 0
10 10 1 8.0000000000000004e-01 5.4821824990029091e+00 7.8822501164330907e+00 1.0004874397533594e+00 -1 0 0
237 33 7 -8.1999999999999995e-01 5.4215776797161324e+00 8.1646611637153157e+00 3.1520166306407611e+00 0 0 -1
112 21 2 -4.6100000000000002e-01 4.4823265292052392e+00 5.3517639778819541e+00 8.2781412484846690e+00 -1 0 0
40 16 2 -4.6100000000000002e-01 1.0821366161923933e+01 3.8522694096859439e-01 5.6375397626263588e+00 -1 0 0
258 40 7 -8.1999999999999995e-01 9.4534829926842754e+00 2.3527914763526403e+00 5.5492345110621610e-01 0 0 -2
51 17 6 -5.8799999999999997e-01 5.7955303419202728e+00 1.3195017183205349e+00 2.6042848194799819e+00 0 0 0
117 21 3 -1.3800000000000001e-01 6.3356410352885195e+00 4.5691011563058721e+00 5.8093709562311036e+00 -1 0 0
251 37 8 4.0999999999999998e-01 8.2564238635311824e+00 7.5433336410496059e+00 1.1530547941324982e+00 -1 -1 -1
119 21 3 -1.3800000000000001e-01 5.9933909024463645e+00 6.7095105821371348e+00 6.2664726113390925e+00 -1 0 0
35 16 3 -1.3800000000000001e-01 1.0071577104942158e+01 4.6566684577392055e+00 2.5874368258109293e+00 -1 0 0
30 16 2 -4.6100000000000002e-01 9.2872218918548874e+00 2.2091222883298869e+00 4.0317522126697680e+00 -1 0 0
32 16 4 3.1900000000000001e-01 1.0002572401077227e+01 4.8128917146071384e+00 3.8832960784636050e+00 -1 0 0
31 16 3 -1.3800000000000001e-01 8.8458008787683937e+00 5.3917051847940707e+00 4.1913750579966944e+00 -1 0 0
286 49 8 4.0999999999999998e-01 6.0554170927816937e+00 4.3248284887413035e+00 2.2480785380536212e+00 0 1 -1
285 49 7 -8.1999999999999995e-01 7.0796630604631918e+00 4.1858498301152558e+00 2.1481618243561096e+00 0 1 -1
287 49 8 4.0999999999999998e-01 7.1151053261241897e+00 3.1830688886982523e+00 2.3094090910940466e+00 0 1 -1
33 16 5 9.1100000000000003e-01 1.0177438044309394e+01 3.1991337366841153e+00 4.7084417305123569e+00 -1 0 0
34 16 2 -4.6100000000000002e-01 1.0264310669299061e+01 3.3374966080499213e+00 6.1567952039114484e+00 -1 0 0
38 16 3 -1.3800000000000001e-01 1.0956769857969906e+01 5.5858857216507500e+00 4.2844796033647441e+00 -1 0 0
249 37 7 -8.1999999999999995e-01 7.4322401816047634e+00 6.8858490172666693e+00 1.2787730800099180e+00 -1 -1 -1
250 37 8 4.0999999999999998e-01 7.5448820010456847e+00 6.4504239611144669e+00 2.1654418556929582e+00 -1 -1 -1
338 66 8 4.0999999999999998e-01 1.0064050699909838e+01 2.5953270227202285e+00 8.0698216642951550e+00 -1 -1 -2
259 40 8 4.0999999999999998e-01 1.0110415477571699e+01 3.1068746344158438e+00 6.9701153747932865e-01 0 0 -2
9 9 1 8.0000000000000004e-01 7.6376059190373775e+00 4.7802174772733856e+00 3.1094307958638417e-01 -1 0 -1
177 25 3 -1.3800000000000001e-01 7.2176087196708645e+00 2.8856430244868205e+00 7.6986020098155690e+00 -1 0 -1
175 25 2 -4.6100000000000002e-01 8.3012204556524090e+00 2.3278782346680815e-01 7.7476371699796234e+00 -1 0 -1
41 16 3 -1.3800000000000001e-01 1.0548736247865945e+01 1.9272929389780571e-01 2.5566161977319299e+00 -1 0 0
260 40 8 4.0999999999999998e-01 9.4168542839996991e+00 1.5853724764240122e+00 1.1974864310970876e+00 0 0 -2
52 17 2 -4.6100000000000002e-01 7.8810725801949921e+00 2.7330249572282139e-01 1.8778794276834905e+00 0 0 0
281 47 8 4.0999999999999998e-01 8.2988885882235586e+00 2.0996555116846852e-01 4.3036618235927175e+00 1 -1 -2
102 20 3 -1.3800000000000001e-01 1.2206286690227286e+01 4.0121446661614000e+00 3.8134297040244086e-01 -1 -1 0
257 39 8 4.0999999999999998e-01 1.1502703886642372e+01 7.8496790727643315e+00 7.5495510510294590e+00 -1 -1 0
96 20 6 -5.8799999999999997e-01 1.1490576092774862e+01 7.0454064176202760e+00 3.2303155764663238e-01 -1 -1 0
256 39 8 4.0999999999999998e-01 1.2813655591052036e+01 7.3287262095789645e+00 6.7530396688503815e+00 -1 -1 0
255 39 7 -8.1999999999999995e-01 1.1923467224494550e+01 7.7167090359395711e+00 6.6340514882898631e+00 -1 -1 0
242 34 8 4.0999999999999998e-01 1.4124143415006385e+01 5.8954381124764161e+00 5.1772170638608559e+00 -2 1 -1
308 56 8 4.0999999999999998e-01 1.3023517980234883e+01 4.9954405033462326e+00 7.8615379940009866e+00 -1 -1 0
313 58 8 4.0999999999999998e-01 1.3910053678215185e+01 8.2237278547302193e+00 4.8636500060142378e+00 -2 -1 1
43 16 4 3.1900000000000001e-01 1.1739409550194470e+01 2.6313393211420871e-02 3.0930801484646802e+00 -1 0 0
36 16 6 -5.8799999999999997e-01 1.1768257494361082e+01 2.5657652216077453e+00 4.4661538495286006e+00 -1 0 0
103 20 4 3.1900000000000001e-01 1.3211421698488122e+01 4.7662731049143785e+00 8.4099983884565543e-01 -1 -1 0
101 20 3 -1.3800000000000001e-01 1.4426469470295418e+01 4.1388854931985053e+00 5.8938942569731956e-01 -1 -1 0
306 56 7 -8.1999999999999995e-01 1.2805244141928080e+01 4.4407972564773042e+00 7.0367408709072681e+00 -1 -1 0
100 20 2 -4.6100000000000002e-01 1.4080101263259042e+01 7.2885640847074242e+00 8.7558339769408744e-01 -1 -1 0
37 16 2 -4.6100000000000002e-01 1.3225072967456867e+01 8.6607092443692113e-01 5.1844818131628712e+00 -1 0 0
307 56 8 4.0999999999999998e-01 1.1820836363133635e+01 4.3103959645847123e+00 6.7730837799799550e+00 -1 -1 0
241 34 8 4.0999999999999998e-01 1.5346587994269960e+01 6.7053787042680906e+00 5.8556110265018777e+00 -2 1 -1
268 43 8 4.0999999999999998e-01 1.5488895217587920e+01 3.3103269477020745e+00 3.3400289271309700e+00 0 0 0
267 43 7 -8.1999999999999995e-01 1.5284814144608731e+01 3.4361681145453797e+00 4.3528688703996519e+00 0 0 0
44 16 3 -1.3800000000000001e-01 1.2614798607865662e+01 5.2065725051109080e-01 2.2779714138898020e+00 -1 0 0
2 2 1 8.0000000000000004e-01 1.3744043508233279e+01 2.9134545699059187e+00 5.8939497306174777e+00 -2 0 0
240 34 7 -8.1999999999999995e-01 1.4349731213428951e+01 6.7688155812647288e+00 5.6152638073178860e+00 -2 1 -1
39 16 5 9.1100000000000003e-01 1.1891188613600773e+01 7.9589158713926589e-01 4.6771277746474098e+00 -1 0 0
269 43 8 4.0999999999999998e-01 1.5902145969369105e+01 4.2033602521199915e+00 4.7146184660851747e+00 0 0 0
104 20 3 -1.3800000000000001e-01 1.3044768561928420e+01 4.8190887694173652e+00 2.1874459425693300e+00 -1 -1 0
99 20 5 9.1100000000000003e-01 1.3124733233244447e+01 6.4289517424804288e+00 1.2562083061744608e-01 -1 -1 0
85 19 2 -4.6100000000000002e-01 1.5894177470520793e+01 2.6162677765839457e+00 8.0913607230634170e+00 -1 0 -1
148 23 4 3.1900000000000001e-01 7.5829594795789479e-01 3.8633602628512840e+00 1.4674542453856180e+01 0 -1 -1
78 19 5 9.1100000000000003e-01 1.7624502616839792e+00 2.1584876469402352e+00 1.0184576381749057e+01 0 0 -1
145 23 2 -4.6100000000000002e-01 3.5042090473055394e+00 3.5970729416825233e+00 1.4454201889018782e+01 0 -1 -1
144 23 5 9.1100000000000003e-01 2.4573664808610922e+00 4.5764347369209792e+00 1.4682871841688756e+01 0 -1 -1
142 23 2 -4.6100000000000002e-01 2.6487000248526766e+00 5.7597962390577431e+00 1.3851644884491943e+01 0 -1 -1
79 19 2 -4.6100000000000002e-01 2.7122267942800038e+00 2.6646853455989090e+00 1.1177415068924262e+01 0 0 -1
8 8 1 8.0000000000000004e-01 3.3367501240316688e+00 6.5097307787065608e+00 1.1849707685268399e+01 0 0 -1
296 52 8 4.0999999999999998e-01 4.2162399240963948e+00 3.8709016504449352e+00 1.1521355747538014e+01 0 -1 -1
246 36 7 -8.1999999999999995e-01 1.4403270990976957e+00 5.9977659590062071e+00 1.1264739831094360e+01 -1 1 -1
25 15 2 -4.6100000000000002e-01 5.2881801838041183e+00 7.2637428334927225e+00 1.3138260999379821e+01 0 -1 -1
81 19 6 -5.8799999999999997e-01 5.8555077713540804e-01 3.4435700544678012e+00 1.0234648015211429e+01 0 0 -1
248 36 8 4.0999999999999998e-01 5.6361353915937973e-01 6.4103457302956102e+00 1.0913754741269573e+01 -1 1 -1
247 36 8 4.0999999999999998e-01 1.2900571941007284e+00 4.9840066793440743e+00 1.1206907852192131e+01 -1 1 -1
294 52 7 -8.1999999999999995e-01 4.5219533481912659e+00 4.8587274364470661e+00 1.1421027101215827e+01 0 -1 -1
77 19 4 3.1900000000000001e-01 1.0795216173145985e+00 4.7139644956127102e-01 1.0536918603331610e+01 0 0 -1
75 19 2 -4.6100000000000002e-01 1.9834925262410703e+00 2.1426944731747670e+00 8.7541197154032613e+00 0 0 -1
149 23 3 -1.3800000000000001e-01 4.5745635848429517e-01 3.3867052735737317e+00 1.3416546668163511e+01 0 -1 -1
147 23 3 -1.3800000000000001e-01 5.4062791060808424e-01 2.8341800350300610e+00 1.5531985751400427e+01 0 -1 -1
340 67 8 4.0999999999999998e-01 5.1059844331360456e+00 1.5688563039810677e+00 1.3248174334682144e+01 -2 0 -1
83 19 3 -1.3800000000000001e-01 3.5849895911042229e-01 3.8575436960396287e-01 1.1593526124146418e+01 0 0 -1
295 52 8 4.0999999999999998e-01 4.5730762713863466e+00 5.1460151571275414e+00 1.0427179930207769e+01 0 -1 -1
165 25 2 -4.6100000000000002e-01 4.7938745904128863e+00 1.5677141266131181e-01 1.0498611447190962e+01 -1 0 -1
289 50 8 4.0999999999999998e-01 5.0089848397307115e+00 5.2940324534191161e+00 1.6271701594498236e+01 0 0 -1
141 23 6 -5.8799999999999997e-01 2.8090443144779389e+00 5.0951526705873560e+00 1.6315845872843809e+01 0 -1 -1
139 23 2 -4.6100000000000002e-01 1.4344879663122436e+00 7.1246034008851993e+00 1.5904778892259712e+01 0 -1 -1
290 50 8 4.0999999999999998e-01 4.9660786553242797e+00 3.7372101109038764e+00 1.5938270092252173e+01 0 0 -1
106 21 3 -1.3800000000000001e-01 1.3562916481082250e+00 7.7852521862299939e+00 8.9060835617907799e+00 -1 0 0
301 54 8 4.0999999999999998e-01 9.1764376356063815e-01 7.8276262390409883e+00 1.1891378764197597e+01 0 0 -2
80 19 3 -1.3800000000000001e-01 2.7695034018922082e-01 8.7516915794290759e-02 9.5129716401956106e+00 0 0 -1
334 65 8 4.0999999999999998e-01 3.6276391040244982e+00 8.1593444117462752e+00 9.6990923619166214e+00 0 -1 -1
341 67 8 4.0999999999999998e-01 5.5706760345159294e+00 1.0117701558744732e+00 1.1727182555035700e+01 -2 0 -1
339 67 7 -8.1999999999999995e-01 5.8033737664114957e+00 1.6283526224464722e+00 1.2553314410716926e+01 -2 0 -1
179 25 3 -1.3800000000000001e-01 5.8904520182118070e+00 2.7387606751620788e+00 9.3887921587942174e+00 -1 0 -1
22 15 2 -4.6100000000000002e-01 5.9571638952066222e+00 7.5820168512462480e+00 1.5518590339965144e+01 0 -1 -1
329 63 8 4.0999999999999998e-01 6.1731030491791286e+00 4.7353633935608013e+00 1.3965038353973529e+01 -2 -1 -1
288 50 7 -8.1999999999999995e-01 5.5992461942797238e+00 4.4447100313486558e+00 1.6274690177984748e+01 0 0 -1
278 46 8 4.0999999999999998e-01 9.2421068950725243e+00 2.6154553675594521e+00 1.5273868420543323e+01 1 0 -1
277 46 8 4.0999999999999998e-01 7.6350351770939824e+00 2.2129597695122194e+00 1.4865646162533768e+01 1 0 -1
283 48 8 4.0999999999999998e-01 1.0007117848256836e+01 5.0872827301836754e+00 1.5224600705558089e+01 0 -1 0
5 5 1 8.0000000000000004e-01 7.9532568364422511e+00 1.4602381557793858e+00 1.2290235707213597e+01 -1 0 -1
195 27 2 -4.6100000000000002e-01 8.3724930873024199e+00 5.0964053508333551e+00 9.0819096110289159e+00 -1 0 -1
57 17 3 -1.3800000000000001e-01 6.2454633510316704e+00 1.3759884498572756e+00 1.6134008063348844e+01 0 0 -1
29 15 3 -1.3800000000000001e-01 8.1629954828818097e+00 7.9979900509521826e+00 1.3419635622722453e+01 0 -1 -1
328 63 8 4.0999999999999998e-01 6.4426693777842736e+00 4.8130524599390228e+00 1.2383916982810465e+01 -2 -1 -1
327 63 7 -8.1999999999999995e-01 6.9040238249391654e+00 4.6661154446154098e+00 1.3275510840275505e+01 -2 -1 -1
276 46 7 -8.1999999999999995e-01 8.4365029355933832e+00 2.8074230272381002e+00 1.4646112611945089e+01 1 0 -1
198 27 5 9.1100000000000003e-01 8.9190637213888948e+00 5.9865564988728304e+00 1.0116195897738772e+01 -1 0 -1
199 27 2 -4.6100000000000002e-01 8.7168871708139068e+00 5.6890578921736896e+00 1.1520567705015861e+01 -1 0 -1
317 59 8 4.0999999999999998e-01 1.0661348094896706e+01 2.1938675819672322e+00 1.2073278402068922e+01 -1 -1 0
315 59 7 -8.1999999999999995e-01 9.7086632563062185e+00 2.4333337666409918e+00 1.1731177669894283e+01 -1 -1 0
11 11 1 8.0000000000000004e-01 8.9188482696520399e+00 4.2176000725512672e+00 1.3251873155182903e+01 0 -1 -2
316 59 8 4.0999999999999998e-01 9.8477416731249736e+00 2.6406451209088364e+00 1.0686256026134226e+01 -1 -1 0
197 27 4 3.1900000000000001e-01 8.2749947154020003e+00 7.6234258931069254e+00 9.8294820138932746e+00 -1 0 -1
337 66 8 4.0999999999999998e-01 9.1152272893516884e+00 3.6743668248860373e+00 8.8693457144005308e+00 -1 -1 -2
201 27 6 -5.8799999999999997e-01 1.0655387428870474e+01 5.7738273911242350e+00 1.0074003838142874e+01 -1 0 -1
336 66 7 -8.1999999999999995e-01 9.7754677613105230e+00 2.8740640890817257e+00 9.0180808971861577e+00 -1 -1 -2
174 25 5 9.1100000000000003e-01 7.3313336998749925e+00 5.6903451951270989e-01 8.7787876524690898e+00 -1 0 -1
322 61 8 4.0999999999999998e-01 1.0147543688737096e+01 5.0559252004082644e-01 9.9685468795956051e+00 -1 -1 -2
196 27 3 -1.3800000000000001e-01 6.9412739482210304e+00 7.5989011486919882e+00 9.9981766093577704e+00 -1 0 -1
58 17 4 3.1900000000000001e-01 5.9910758616940134e+00 1.0667797382893343e-01 1.6516480255372279e+01 0 0 -1
178 25 4 3.1900000000000001e-01 6.3738048181674847e+00 2.0652605633034256e+00 8.3776698859566405e+00 -1 0 -1
172 25 2 -4.6100000000000002e-01 7.8234182754045891e+00 6.7402184563424006e-01 1.0114932452754330e+01 -1 0 -1
282 48 7 -8.1999999999999995e-01 9.5314422408917494e+00 5.4554133812601568e+00 1.6051373768868629e+01 0 -1 0
24 15 5 9.1100000000000003e-01 5.7398640704894284e+00 8.1591747738105926e+00 1.4196099626191348e+01 0 -1 -1
200 27 3 -1.3800000000000001e-01 8.4939129396310236e+00 8.0003777944510777e+00 8.5436039718723613e+00 -1 0 -1
284 48 8 4.0999999999999998e-01 1.0225280916111114e+01 6.1323952151471266e+00 1.6404878492386789e+01 0 -1 0
89 19 3 -1.3800000000000001e-01 1.4852665629295988e+01 2.6639354175672452e+00 1.1668923594495928e+01 -1 0 -1
205 27 2 -4.6100000000000002e-01 1.1138902550472727e+01 8.2858813070528043e+00 9.1586689350690005e+00 -1 0 -1
209 27 3 -1.3800000000000001e-01 1.2766365967690035e+01 6.7216870632311094e+00 1.2192637496560396e+01 -1 0 -1
232 31 8 4.0999999999999998e-01 1.5816291148098589e+01 7.8263287532939634e+00 9.8102246579470016e+00 0 1 -2
155 24 3 -1.3800000000000001e-01 1.5186905486531117e+01 7.0709272848938132e-01 1.4513036231335498e+01 -1 0 -1
146 23 3 -1.3800000000000001e-01 1.6384834687926336e+01 4.7483306016138522e+00 1.4916944646310474e+01 -1 -1 -1
318 60 7 -8.1999999999999995e-01 1.1116591057790687e+01 4.9224568339404327e+00 1.3740463586827596e+01 0 0 -1
320 60 8 4.0999999999999998e-01 1.1618479922988294e+01 5.7807977643972848e+00 1.3350388390826684e+01 0 0 -1
156 24 6 -5.8799999999999997e-01 1.1269967988079239e+01 5.8280365956853109e-01 1.4763841213151762e+01 -1 0 -1
319 60 8 4.0999999999999998e-01 1.1876582792977718e+01 4.2546852286981283e+00 1.3814009257017339e+01 0 0 -1
88 19 4 3.1900000000000001e-01 1.4519089490771911e+01 2.5020130990580882e+00 1.0387305246006253e+01 -1 0 -1
86 19 3 -1.3800000000000001e-01 1.4353529773237677e+01 1.1835131936997894e+00 1.0079527018992939e+01 -1 0 -1
154 24 2 -4.6100000000000002e-01 1.2385170066933362e+01 2.5929200863433524e+00 1.4115354478296442e+01 -1 0 -1
150 24 2 -4.6100000000000002e-01 1.2818659098051540e+01 5.9886553083025107e-01 1.2497007322745731e+01 -1 0 -1
202 27 2 -4.6100000000000002e-01 1.2915676138566250e+01 6.6110858692502852e+00 9.2037682552666933e+00 -1 0 -1
84 19 5 9.1100000000000003e-01 1.5677017116874961e+01 3.3459434683819911e+00 9.3382014448389565e+00 -1 0 -1
208 27 4 3.1900000000000001e-01 1.2189477479689712e+01 7.7414445271118737e+00 1.1545164666002609e+01 -1 0 -1
87 19 3 -1.3800000000000001e-01 1.3268909900280260e+01 2.9573936202389079e+00 1.0215962985496912e+01 -1 0 -1
152 24 4 3.1900000000000001e-01 1.4002528034417963e+01 5.3115290672640403e-01 1.5027818387745263e+01 -1 0 -1
233 31 8 4.0999999999999998e-01 1.4801998740467026e+01 7.0661691593126426e+00 1.0807335654407494e+01 0 1 -2
97 20 2 -4.6100000000000002e-01 1.3327710521943633e+01 6.4289546288378423e+00 1.5253425943244645e+01 -1 -1 -1
151 24 3 -1.3800000000000001e-01 1.3985573575513730e+01 1.0886977257645933e+00 1.6219917175134650e+01 -1 0 -1
82 19 2 -4.6100000000000002e-01 1.5239419437946237e+01 4.7087312443224780e+00 9.0399950415157448e+00 -1 0 -1
231 31 7 -8.1999999999999995e-01 1.5711498534706871e+01 7.2982349269616629e+00 1.0663407053646942e+01 0 1 -2
204 27 5 9.1100000000000003e-01 1.1740740174278743e+01 7.1713717885114914e+00 9.8961824344029061e+00 -1 0 -1
291 51 7 -8.1999999999999995e-01 1.5563552734677906e+01 7.7524767452427605e+00 1.4045320450058574e+01 -1 -2 -2
292 51 8 4.0999999999999998e-01 1.4904692562678896e+01 7.1885444305634989e+00 1.4583928975852446e+01 -1 -2 -2
153 24 5 9.1100000000000003e-01 1.2688204154341920e+01 1.1445550716871984e+00 1.3886588237135030e+01 -1 0 -1
206 27 3 -1.3800000000000001e-01 1.1159981529008137e+01 8.1032561738881856e+00 1.2375338704445737e+01 -1 0 -1
220 28 2 -4.6100000000000002e-01 2.9244911068521153e+00 1.2761280565812248e+01 1.6383629229011523e+00 0 0 0
222 28 3 -1.3800000000000001e-01 2.9654660994254423e+00 9.8124740318413313e+00 2.7614449189462045e+00 0 0 0
223 28 4 3.1900000000000001e-01 2.4304202116657971e+00 1.0842317226151861e+01 3.4236063856407353e+00 0 0 0
221 28 3 -1.3800000000000001e-01 3.2692299833428069e+00 1.1248154682122882e+01 4.3866390414731455e+00 0 0 0
219 28 5 9.1100000000000003e-01 1.8410255055965972e+00 1.2170222550781370e+01 2.3821392424752510e+00 0 0 0
3 3 1 8.0000000000000004e-01 4.1684346291956782e+00 1.4141384458213313e+01 3.0578131411767302e+00 0 -2 -1
309 57 7 -8.1999999999999995e-01 4.6177359350137479e+00 1.4843492881171185e+01 5.0651476433355000e+00 -1 -2 0
224 28 3 -1.3800000000000001e-01 1.3712862926807265e+00 1.0325112371477328e+01 4.0211302643005959e+00 0 0 0
216 28 6 -5.8799999999999997e-01 1.7745162725425798e+00 1.3591288887257830e+01 3.3408552806824807e+00 0 0 0
214 28 2 -4.6100000000000002e-01 5.5450966748330688e-01 1.4570746640357005e+01 5.2440965501321344e+00 0 0 0
311 57 8 4.0999999999999998e-01 4.1675147388002092e+00 1.5592863312314229e+01 5.6448844532336562e+00 -1 -2 0
217 28 2 -4.6100000000000002e-01 5.6173678821137718e-01 1.2139129298904336e+01 1.7200815286106177e+00 0 0 0
213 28 5 9.1100000000000003e-01 1.9823779858640267e-01 1.4268332947331928e+01 3.8660430985934973e+00 0 0 0
245 35 8 4.0999999999999998e-01 2.1195640471199604e+00 1.5378764754644457e+01 6.1340695661736220e+00 -1 0 -1
45 17 2 -4.6100000000000002e-01 3.5945157757031576e+00 1.6497909284619443e+01 2.7530445111401716e+00 0 -1 0
113 21 3 -1.3800000000000001e-01 1.3507220532070019e+00 9.7315477669197215e+00 8.0312066773374955e+00 -1 0 0
244 35 8 4.0999999999999998e-01 2.6548544549320483e+00 1.5614070925545972e+01 7.6643575202735450e+00 -1 0 -1
19 15 2 -4.6100000000000002e-01 5.5081909640962818e+00 9.8845357735199499e+00 2.1055952616883802e-01 0 -1 0
243 35 7 -8.1999999999999995e-01 2.4597225628150765e+00 1.6147423390949232e+01 6.8046284263398196e+00 -1 0 -1
185 26 3 -1.3800000000000001e-01 5.0817953770368378e+00 1.2023541306481725e+01 6.8052295629544695e+00 0 -1 0
107 21 4 3.1900000000000001e-01 1.4903709140581216e+00 8.3903954527100666e+00 7.7565805517584145e+00 -1 0 0
109 21 2 -4.6100000000000002e-01 3.1785270217243613e+00 8.5550048523930595e+00 5.5459707404682366e+00 -1 0 0
252 38 7 -8.1999999999999995e-01 6.1758055718990464e-02 1.2374640288286219e+01 7.7412804075583770e+00 0 0 -1
254 38 8 4.0999999999999998e-01 3.5128534657745714e-01 1.3154287799095618e+01 7.1710197474425241e+00 0 0 -1
215 28 3 -1.3800000000000001e-01 6.7003480142837435e-01 1.6537128658316956e+01 2.8479257024578755e+00 0 0 0
279 47 7 -8.1999999999999995e-01 7.9773651050239813e+00 1.5843596336057672e+01 4.5434374421407249e+00 1 -2 -2
238 33 8 4.0999999999999998e-01 5.9893514151352152e+00 8.8749186561124844e+00 3.5967470774824242e+00 0 0 -1
310 57 8 4.0999999999999998e-01 5.5375890037732933e+00 1.4579589415279615e+01 5.4293352772526724e+00 -1 -2 0
280 47 8 4.0999999999999998e-01 7.5009044822952493e+00 1.5452263637803968e+01 3.7347398243601231e+00 1 -2 -2
55 17 2 -4.6100000000000002e-01 5.9414112363580003e+00 1.5304917445656665e+01 2.3179001117207121e+00 0 -1 0
54 17 5 9.1100000000000003e-01 6.4576622268455450e+00 1.6540492966988971e+01 1.7364598824519688e+00 0 -1 0
190 26 2 -4.6100000000000002e-01 5.5832310210537806e+00 1.2304559147778511e+01 2.6781286549947443e+00 0 -1 0
181 26 3 -1.3800000000000001e-01 5.8879071680167980e+00 1.0051963612114371e+01 6.3817575935100042e+00 0 -1 0
182 26 4 3.1900000000000001e-01 6.1732245153778571e+00 1.1284968255542299e+01 6.8971855024957387e+00 0 -1 0
184 26 2 -4.6100000000000002e-01 7.9478811240716682e+00 1.3293640978169957e+01 6.8304018887437321e+00 0 -1 0
186 26 6 -5.8799999999999997e-01 7.0023417830584060e+00 1.2796388887398567e+01 4.7596048665087149e+00 0 -1 0
187 26 2 -4.6100000000000002e-01 6.7480366230424726e+00 1.0374742437212825e+01 3.7005672632565236e+00 0 -1 0
189 26 5 9.1100000000000003e-01 6.8429209346888964e+00 1.1808200990906480e+01 3.3012922118217434e+00 0 -1 0
194 26 3 -1.3800000000000001e-01 8.6889994936100035e+00 1.3312272696510238e+01 2.1363442606758856e+00 0 -1 0
193 26 4 3.1900000000000001e-01 8.3564845296581165e+00 1.2050675550760388e+01 2.2890894017916872e+00 0 -1 0
191 26 3 -1.3800000000000001e-01 8.1361591131679525e+00 1.1636996700037061e+01 9.9686598346609545e-01 0 -1 0
192 26 3 -1.3800000000000001e-01 9.4040994355418182e+00 1.1430771679537196e+01 2.8459730917651451e+00 0 -1 0
180 26 2 -4.6100000000000002e-01 8.6559598130401874e+00 1.1206364569953262e+01 5.5724508019736811e+00 0 -1 0
183 26 5 9.1100000000000003e-01 7.6137682710007004e+00 1.2018255265183917e+01 6.1904623063466904e+00 0 -1 0
4 4 1 8.0000000000000004e-01 8.8420674414482257e+00 1.5269229639655542e+01 6.3588949158118613e+00 -1 -1 -1
229 30 8 4.0999999999999998e-01 8.5668637872391855e+00 8.6385916681243948e+00 4.7956787250508981e+00 -1 0 0
228 30 7 -8.1999999999999995e-01 9.3438575464131830e+00 8.5647673688303403e+00 4.1527321545815425e+00 -1 0 0
230 30 8 4.0999999999999998e-01 9.2009470704277856e+00 9.2286742334343792e+00 3.4628006176107786e+00 -1 0 0
90 20 2 -4.6100000000000002e-01 9.7258543282752008e+00 8.5826462470392748e+00 8.4032422655213190e-01 -1 -1 0
130 22 2 -4.6100000000000002e-01 1.0453124117501607e+01 1.4688160071642939e+01 7.6430816266790806e+00 0 -1 0
326 62 8 4.0999999999999998e-01 1.0245513304603627e+01 1.0782576370238131e+01 5.4345813270163017e+00 -1 0 -1
188 26 3 -1.3800000000000001e-01 6.3452652605280004e+00 1.1051952836310745e+01 8.2415982855572185e+00 0 -1 0
272 44 8 4.0999999999999998e-01 1.5122783757362052e+01 1.3539915410218942e+01 6.7137421011664855e-01 0 -1 -2
325 62 8 4.0999999999999998e-01 1.1660612479735528e+01 1.0802937152309353e+01 6.3888089997008901e+00 -1 0 -1
331 64 8 4.0999999999999998e-01 1.5923262769430345e+01 1.0271689489669432e+01 7.6500805518012138e-01 -1 -1 -1
332 64 8 4.0999999999999998e-01 1.4825701782235997e+01 9.2024798054118513e+00 1.0135475140862180e+00 -1 -1 -1
312 58 7 -8.1999999999999995e-01 1.3530498663344442e+01 9.0168625132487392e+00 4.3200296075621401e+00 -2 -1 1
235 32 8 4.0999999999999998e-01 1.2813742371838586e+01 1.1001232702376068e+01 4.1946790633352293e+00 -1 -1 0
211 28 3 -1.3800000000000001e-01 1.6328943701190752e+01 1.5195145960579293e+01 1.5346210891207390e+00 -1 0 0
253 38 8 4.0999999999999998e-01 1.6209933763454210e+01 1.1707712210081475e+01 7.1547246316120168e+00 -1 0 -1
275 45 8 4.0999999999999998e-01 1.4933527119402774e+01 1.0135796961846518e+01 8.1437546519403909e+00 0 -1 -1
266 42 8 4.0999999999999998e-01 1.4186011402545045e+01 1.1451332633928814e+01 5.8382072998734866e+00 -2 -1 0
314 58 8 4.0999999999999998e-01 1.3365347299932438e+01 8.6942109100366736e+00 3.3317818661238952e+00 -2 -1 1
210 28 2 -4.6100000000000002e-01 1.5844565148435171e+01 1.3116124369735427e+01 3.8948403912653702e+00 -1 0 0
265 42 8 4.0999999999999998e-01 1.4414327862605857e+01 9.7740877260920289e+00 5.8156608308511490e+00 -2 -1 0
12 12 1 8.0000000000000004e-01 1.1388299159328842e+01 8.5741799040866784e+00 4.5914135791999859e+00 0 -1 -1
94 20 2 -4.6100000000000002e-01 1.1975406824953037e+01 8.7914329416591972e+00 2.0220135054298596e+00 -1 -1 0
132 22 3 -1.3800000000000001e-01 1.3209307737528002e+01 1.5943674368308486e+01 7.7471701271638205e+00 0 -1 0
93 20 5 9.1100000000000003e-01 1.1225360368492257e+01 8.7183263915851068e+00 7.3469352626168771e-01 -1 -1 0
42 16 3 -1.3800000000000001e-01 1.2024253569400587e+01 1.5286463683495583e+01 3.1595515277226500e+00 -1 -1 0
133 22 4 3.1900000000000001e-01 1.3199412140715026e+01 1.4646107326188725e+01 7.4634815132637540e+00 0 -1 0
270 44 7 -8.1999999999999995e-01 1.4266453620471927e+01 1.3229075583807397e+01 1.1356813588812054e+00 0 -1 -2
212 28 4 3.1900000000000001e-01 1.6365647263463327e+01 1.5582319654781033e+01 2.8097335391721865e+00 -1 0 0
236 32 8 4.0999999999999998e-01 1.2418112104155174e+01 1.2635109015872242e+01 4.2761246089599112e+00 -1 -1 0
127 22 2 -4.6100000000000002e-01 1.1425281279844409e+01 1.3513830782204595e+01 5.6557211453906042e+00 0 -1 0
126 22 6 -5.8799999999999997e-01 1.1458491332966780e+01 1.2390281496250623e+01 7.8830566075284993e+00 0 -1 0
264 42 7 -8.1999999999999995e-01 1.4505980107944463e+01 1.0640570497031533e+01 6.3958507803741504e+00 -2 -1 0
134 22 3 -1.3800000000000001e-01 1.3987819795681798e+01 1.4505098493754602e+01 6.3522311572950123e+00 0 -1 0
234 32 7 -8.1999999999999995e-01 1.3000702375888128e+01 1.1933572823194121e+01 3.8064739921420858e+00 -1 -1 0
324 62 7 -8.1999999999999995e-01 1.1227661471641651e+01 1.0469738500602034e+01 5.4837411917859722e+00 -1 0 -1
13 13 1 8.0000000000000004e-01 1.4727319409699883e+01 1.1718847821786460e+01 2.5022854459060997e+00 0 0 1
330 64 7 -8.1999999999999995e-01 1.5145513267554811e+01 1.0033209220232518e+01 1.3763320077854810e+00 -1 -1 -1
129 22 5 9.1100000000000003e-01 1.1582454108108042e+01 1.3932237328035590e+01 7.0667517923978824e+00 0 -1 0
271 44 8 4.0999999999999998e-01 1.3507236797369393e+01 1.3229783418517194e+01 4.4371889572135120e-01 0 -1 -2
218 28 3 -1.3800000000000001e-01 1.5150366983810157e+01 1.6022992555090401e+01 3.1539121381010045e+00 -1 0 0