variable        infile index data.mol
variable        mytemp index 298

# set up simulation
#read_restart    ${NAME}.restart.*

# the following information is saved to restart files
units           real
atom_style      full
boundary        p p p
pair_style      lj/cut/coul/long 7
kspace_style    pppm 0.0001
pair_modify     tail yes
pair_modify     mix arithmetic
special_bonds   amber

bond_style      harmonic
angle_style     harmonic
dihedral_style  charmm
#improper_style  cvff

read_data       ${infile}
read_data       data.mol
  orthogonal box = (0 0 0) to (16.5843 16.5843 16.5843)
  1 by 2 by 2 MPI processor grid
  reading atoms ...
  341 atoms
  reading velocities ...
  341 velocities
  scanning bonds ...
  4 = max bonds/atom
  scanning angles ...
  6 = max angles/atom
  scanning dihedrals ...
  12 = max dihedrals/atom
  reading bonds ...
  274 bonds
  reading angles ...
  389 angles
  reading dihedrals ...
  420 dihedrals
  4 = max # of 1-2 neighbors
  6 = max # of 1-3 neighbors
  12 = max # of 1-4 neighbors
  14 = max # of special neighbors
  special bonds CPU = 0.000582641 secs
  read_data CPU = 0.0140343 secs

#replicate       3 4 4

neighbor        2.0 bin
neigh_modify    delay 0 every 1 check yes page 1000000 one 20000
timestep        1.0
#velocity        all create ${mytemp} 314159265 mom yes rot yes dist gaussian

## end information that is saved to restart files

## create velocity profile
#minimize       1e-4 1e-6 10000 10000
#velocity        all create  ${mytemp} 314159265 units box
velocity        all zero linear units box
dump            DUMP all custom 1000 ${NAME}.lammpstrj id type x y z mol
dump            DUMP all custom 1000 mol.lammpstrj id type x y z mol
thermo_style    custom step vol temp press ke pe etotal enthalpy evdwl ecoul epair ebond eangle edihed eimp emol elong etail lx ly lz xy xz yz pxy pxz pyz pxx pyy pzz
thermo          1000
#
## thermostat and integrator

#fix             NPT all npt temp ${mytemp} ${mytemp} 100.0 iso 1.0 1.0 100.0
fix             NVT all nvt temp ${mytemp} ${mytemp} 100.0
fix             NVT all nvt temp 298 ${mytemp} 100.0
fix             NVT all nvt temp 298 298 100.0

restart         50000 restart.${NAME}.1 restart.${NAME}.2
restart         50000 restart.mol.1 restart.${NAME}.2
restart         50000 restart.mol.1 restart.mol.2
run             10000000
PPPM initialization ...
  using 12-bit tables for long-range coulomb (src/kspace.cpp:332)
  G vector (1/distance) = 0.374366
  grid = 12 12 12
  stencil order = 5
  estimated absolute RMS force accuracy = 0.0274815
  estimated relative force accuracy = 8.27598e-05
  using double precision KISS FFT
  3d grid and FFT values/proc = 3211 432
Neighbor list info ...
  update every 1 steps, delay 0 steps, check yes
  max neighbors/atom: 20000, page size: 1000000
  master list distance cutoff = 9
  ghost atom cutoff = 9
  binsize = 4.5, bins = 4 4 4
  1 neighbor lists, perpetual/occasional/extra = 1 0 0
  (1) pair lj/cut/coul/long, perpetual
      attributes: half, newton on
      pair build: half/bin/newton
      stencil: half/bin/3d/newton
      bin: standard
Per MPI rank memory allocation (min/avg/max) = 17.94 | 17.94 | 17.94 Mbytes
Step Volume Temp Press KinEng PotEng TotEng Enthalpy E_vdwl E_coul E_pair E_bond E_angle E_dihed E_impro E_mol E_long E_tail Lx Ly Lz Xy Xz Yz Pxy Pxz Pyz Pxx Pyy Pzz 
       0    4561.3294    298.22305   -1733.4798    302.24173   -777.39797   -475.15624   -590.47132   -121.63577     4932.562   -1644.3183    85.294671    155.13706    626.48857            0     866.9203   -6455.2445   -48.271156      16.5843      16.5843      16.5843            0            0            0   -1523.1068    534.22057   -2029.6251   -496.60027    -2021.714   -2682.1253 
    1000    4561.3294    303.87965   -1650.9829    307.97456   -740.67347   -432.69891   -542.52611   -92.076517    4919.4095   -1626.3397    101.96791    166.71676    616.98154            0    885.66622   -6453.6727   -48.271156      16.5843      16.5843      16.5843            0            0            0   -1236.8734    1715.6434    -5451.365   -6315.5458   -1045.7489     2408.346 
    2000    4561.3294      292.378     3765.164    296.31792    -750.6373   -454.31939   -203.85198   -93.203417     4915.962   -1631.1304    92.182566    174.53571    613.77486            0    880.49314    -6453.889   -48.271156      16.5843      16.5843      16.5843            0            0            0    1561.8717    2434.2699   -3221.8754    2542.8173    7810.0688    942.60579 
    3000    4561.3294    277.90674    882.52496    281.65165   -744.35533   -462.70368   -403.99608   -78.797484    4894.8636   -1639.5764    104.26133    167.25719     623.7026            0    895.22112   -6455.6426   -48.271156      16.5843      16.5843      16.5843            0            0            0   -2267.4997   -3413.7116    468.56286    1724.9215    2897.8641   -1975.2108 
    4000    4561.3294    297.08716    -173.9613    301.09053     -735.751   -434.66047   -446.23278   -74.451582    4911.5733   -1613.5712    103.79567    146.73899    627.28556            0    877.82021   -6450.6929   -48.271156      16.5843      16.5843      16.5843            0            0            0    1829.2849    3305.4998    644.23797    95.892837    1801.8446   -2419.6213 
    5000    4561.3294    297.22466     1774.388    301.22988   -748.28068    -447.0508   -329.01441   -89.997405    4940.1398    -1605.048    94.046911    140.99251    621.72795            0    856.76737   -6455.1904   -48.271156      16.5843      16.5843      16.5843            0            0            0   -1608.1472    852.48895    1077.7624    2584.4204    5392.5904   -2653.8467 
    6000    4561.3294    300.30079    1965.8324    304.34747   -756.09427    -451.7468   -320.97509   -72.858977    4899.2213   -1629.0495    102.69366    148.59164    621.66995            0    872.95525   -6455.4119   -48.271156      16.5843      16.5843      16.5843            0            0            0     974.3782    709.86723   -45.614608    4077.5657    1507.1541    312.77729 
    7000    4561.3294    289.86157   -683.61431    293.76758   -751.26247    -457.4949    -502.9705   -98.673199    4917.4408    -1633.812    107.28287    150.30792    624.95874            0    882.54953   -6452.5796   -48.271156      16.5843      16.5843      16.5843            0            0            0   -1917.6544    310.05842   -1953.5416    141.86164   -3919.9515    1727.2469 
    8000    4561.3294    306.06616   -4290.8873    310.19053    -745.5924   -435.40187   -720.84161   -81.005547    4872.2867   -1660.5075     118.5258     168.4569    627.93237            0    914.91507   -6451.7886   -48.271156      16.5843      16.5843      16.5843            0            0            0    283.98547    503.16723   -1427.0682   -1959.9437    -7203.684   -3709.0343 
    9000    4561.3294    295.16506   -2641.6972    299.14253   -723.89021   -424.74768   -600.47948   -81.459009    4920.7417   -1614.7638    125.95892    159.84525    605.06941            0    890.87358   -6454.0465   -48.271156      16.5843      16.5843      16.5843            0            0            0    351.78893    2800.7701    122.97115   -5252.0021   -832.34148    -1840.748 
   10000    4561.3294    307.18725   -764.02674    311.32673   -751.83894   -440.51222   -491.33704   -110.06565    4926.5772   -1637.1511    89.678986    169.12282    626.51036            0    885.31216   -6453.6626   -48.271156      16.5843      16.5843      16.5843            0            0            0   -204.59661   -6244.9713    272.66801    363.84087   -6742.6827    4086.7616 
   11000    4561.3294    271.20954    668.44442     274.8642   -754.90471   -480.04052   -435.57405   -76.417267     4880.167   -1652.1793    119.48041    158.32938    619.46483            0    897.27461    -6455.929   -48.271156      16.5843      16.5843      16.5843            0            0            0    -3948.183    809.46987    4870.1241    835.02967    1806.6266     -636.323 
   12000    4561.3294    295.76466   -535.81739    299.75021   -775.64974   -475.89953   -511.54334   -97.943061     4919.662   -1635.3088    98.876798    142.04759    618.73468            0    859.65906   -6457.0277   -48.271156      16.5843      16.5843      16.5843            0            0            0   -3366.8947   -1981.0855   -1511.1701   -2944.9881    3503.7272   -2166.1912 
   13000    4561.3294    297.51883   -2028.0161    301.52802   -739.04301   -437.51499   -572.42331   -116.33599    4931.6749   -1640.8569     102.5991    172.40669    626.80808            0    901.81387   -6456.1958   -48.271156      16.5843      16.5843      16.5843            0            0            0   -61.715463    335.36469    2971.9661    133.35002   -5977.0048   -240.39351 
   14000    4561.3294     293.6612   -943.72614    297.61841   -781.32073   -483.70232   -546.48117   -90.250445    4903.5646   -1641.2475    90.639394    146.67262     622.6148            0    859.92682   -6454.5617   -48.271156      16.5843      16.5843      16.5843            0            0            0   -2689.6209    515.38101    544.73141   -2639.5019    2152.5969   -2344.2735 
   15000    4561.3294    277.83231   -170.05392    281.57621   -750.43267   -468.85646   -480.16884   -96.632284     4920.287   -1631.9621    108.43791    152.84755    620.24394            0    881.52941   -6455.6168   -48.271156      16.5843      16.5843      16.5843            0            0            0    385.02916   -698.82553   -614.19234   -902.22051   -639.04177    1031.1005 
   16000    4561.3294    297.20317   -2402.3834    301.20811   -728.24466   -427.03655   -586.84864   -75.108822    4915.1679   -1612.9136    102.47767    161.12623    621.06507            0    884.66898   -6452.9727   -48.271156      16.5843      16.5843      16.5843            0            0            0   -904.82413   -2868.1801   -5768.2181   -9735.1005   -29.923164    2557.8734 
   17000    4561.3294    304.12771   -2644.5347    308.22596   -777.24681   -469.02085   -644.94141   -95.908858    4913.5786   -1637.2345    90.077826    152.47078    617.43912            0    859.98773   -6454.9042   -48.271156      16.5843      16.5843      16.5843            0            0            0    564.60769   -35.246916    1729.4496    591.98136   -2615.2432   -5910.3424 
   18000    4561.3294    302.10015   -2658.2909    306.17108   -746.15844   -439.98736   -616.82301   -100.37788    4914.9912   -1641.7343    110.79916    172.40503    612.37165            0    895.57584   -6456.3476   -48.271156      16.5843      16.5843      16.5843            0            0            0   -3017.8311   -1752.7215    2954.8196    1455.6674   -3842.1157   -5588.4244 
   19000    4561.3294    288.32909   -771.36427    292.21444    -745.6911   -453.47666   -504.78959   -96.621432    4935.5543   -1617.5115    96.276555     165.5286    610.01529            0    871.82045   -6456.4444   -48.271156      16.5843      16.5843      16.5843            0            0            0   -3347.8651    2298.9757    4207.2638   -542.27157   -964.34156   -807.47967 
   20000    4561.3294    306.30995    4204.5813     310.4376   -775.30864   -464.87104   -185.17258   -82.769377    4886.1978     -1649.38    87.579561    170.86753    615.62422            0    874.07131   -6452.8084   -48.271156      16.5843      16.5843      16.5843            0            0            0    2313.2975    1142.7835    2798.7813    4916.3259    6244.6936    1452.7243 
   21000    4561.3294    304.31462   -3260.4637    308.41539   -767.70363   -459.28824   -676.18182   -93.391414    4892.3988   -1654.8533    106.37375    171.19751    609.57839            0    887.14965   -6453.8606   -48.271156      16.5843      16.5843      16.5843            0            0            0   -924.13933    3268.9377    3842.7349    -5735.455   -3370.3251   -675.61099 
   22000    4561.3294    308.17059   -786.40808    312.32331   -758.72854   -446.40523   -498.71891   -83.509803    4886.6004   -1647.3391    96.102691    172.91886      619.589            0    888.61056   -6450.4297   -48.271156      16.5843      16.5843      16.5843            0            0            0    1068.9366    609.57446    3304.7789    81.582755    4478.9982   -6919.8053 
   23000    4561.3294    291.38641    44.161898    295.31296   -751.47094   -456.15798   -453.22022   -88.284924    4898.6117   -1645.5174    106.74898    172.89385    614.40358            0    894.04641   -6455.8442   -48.271156      16.5843      16.5843      16.5843            0            0            0    2081.0992   -2430.9751   -1181.5986    1994.0157   -4742.5356    2881.0056 
   24000    4561.3294    318.10339    188.64505    322.38997   -761.60237    -439.2124    -426.6633    -89.83216    4909.6722    -1636.628    89.266761    177.68978    608.06909            0    875.02563   -6456.4681   -48.271156      16.5843      16.5843      16.5843            0            0            0    2156.0902   -2623.3047   -2622.4915    2021.7623    2228.9981   -3684.8252 
   25000    4561.3294    282.55397   -2247.0274     286.3615   -734.23684   -447.87534   -597.35279   -98.430103    4894.7053   -1660.8136    125.26849    189.13535    612.17291            0    926.57676   -6457.0888   -48.271156      16.5843      16.5843      16.5843            0            0            0   -1886.3334    2669.2661    5569.0813    2148.1108   -7691.1063   -1198.0865 
   26000    4561.3294    281.70441    1021.2094     285.5005   -755.68218   -470.18168   -402.24848    -83.01276    4878.9296   -1656.6728    106.99611    181.53468    612.45984            0    900.99064   -6452.5897   -48.271156      16.5843      16.5843      16.5843            0            0            0   -2416.4981    1228.3827    1156.3936    1507.2114   -719.94354    2276.3602 
   27000    4561.3294    279.51224   -757.10609    283.27879   -764.26998   -480.99119   -531.35564   -85.389395    4875.2567   -1665.0797    102.03432    181.23855    617.53688            0    900.80974    -6454.947   -48.271156      16.5843      16.5843      16.5843            0            0            0    2506.1924   -2763.8192   -2190.8687   -3783.7718    4142.2905   -2629.8369 
   28000    4561.3294    295.53068    626.05399    299.51308   -743.81628    -444.3032   -402.65664   -117.41278    4926.2393    -1646.967    104.46191    175.12446    623.56438            0    903.15075   -6455.7936   -48.271156      16.5843      16.5843      16.5843            0            0            0    1128.0638    1131.0038   -1218.8183   -1886.1067    3906.3644   -142.09571 
   29000    4561.3294    294.38955    -2314.954    298.35658   -754.93784   -456.58127   -610.57735   -79.891489    4891.7359   -1643.9752    106.03616    172.73942    610.26181            0    889.03739   -6455.8197   -48.271156      16.5843      16.5843      16.5843            0            0            0   -166.79333    551.60572   -2396.8025   -2273.9202   -1820.3163   -2850.6254 
   30000    4561.3294    285.84426   -5965.9193    289.69613   -784.32092   -494.62479   -891.49153   -104.85851      4893.98   -1668.7181    90.981675    173.74121    619.67431            0    884.39719   -6457.8396   -48.271156      16.5843      16.5843      16.5843            0            0            0     3500.288   -299.11422     236.6276   -1248.5146   -8378.9114   -8270.3318 
   31000    4561.3294    286.33363   -1360.4141    290.19209   -749.90486   -459.71277   -550.21066   -104.07132    4885.4097   -1674.1192    105.19753    200.85122    618.16556            0    924.21431   -6455.4576   -48.271156      16.5843      16.5843      16.5843            0            0            0    838.71332    446.95023    451.22399    2301.5926   -2165.6321   -4217.2027 
   32000    4561.3294      301.787   -2700.5897    305.85371   -769.65546   -463.80175   -643.45122   -87.521779    4880.9578   -1660.3602    100.70979    177.22719    612.76779            0    890.70477   -6453.7963   -48.271156      16.5843      16.5843      16.5843            0            0            0    2104.5467   -614.98075   -918.41143   -4233.9004   -2742.0499    -1125.819 
   33000    4561.3294    298.31901   -1218.8414    302.33898   -752.92118    -450.5822   -531.66234   -97.145869      4891.26   -1654.1333    106.24025    184.66422    610.30763            0     901.2121   -6448.2474   -48.271156      16.5843      16.5843      16.5843            0            0            0    1391.5691   -1465.6598   -5872.5996   -2055.5066   -345.57239   -1255.4452 
   34000    4561.3294    298.53389   -1317.5262    302.55676   -747.57986    -445.0231   -532.66798   -91.373096    4907.9036   -1633.6704    103.74657    173.56139    608.78256            0    886.09052   -6450.2009   -48.271156      16.5843      16.5843      16.5843            0            0            0   -2474.2787    52.854744   -4134.3996   -3020.9658    866.61788   -1798.2307 
   35000    4561.3294     275.1312    1902.8065    278.83871   -762.94879   -484.11008     -357.531   -82.958513    4901.8846   -1636.5132    106.76952    152.19734    614.59758            0    873.56444   -6455.4393   -48.271156      16.5843      16.5843      16.5843            0            0            0   -3387.2016    5429.1978   -1573.8466    289.71219   -1389.8788     6808.586 
   36000    4561.3294    292.71349    4017.4157    296.65792   -748.00827   -451.35034   -184.10257   -84.704452     4907.391   -1628.9758     91.34984    172.40914    617.20853            0    880.96751   -6451.6623   -48.271156      16.5843      16.5843      16.5843            0            0            0    1999.6799    3659.5806    4103.6331    3099.7685    6106.3955     2846.083 
   37000    4561.3294    294.90566    4929.3386    298.87963   -755.36062   -456.48099      -128.57    -46.60979    4851.9322   -1647.2018    95.045125    179.80068    616.99535            0    891.84115   -6452.5242   -48.271156      16.5843      16.5843      16.5843            0            0            0   -1900.8734   -617.88328    4014.7491    1574.0531    5344.1108    7869.8521 
   38000    4561.3294    302.93552   -5299.4759     307.0177   -753.18969   -446.17199   -798.70537   -97.148115    4897.0781   -1654.0325    108.17745    184.12014     608.5452            0     900.8428   -6453.9625   -48.271156      16.5843      16.5843      16.5843            0            0            0   -1469.7231   -586.95543    4550.1466   -5449.1676     -2001.39   -8447.8701 
   39000    4561.3294    287.69223   -1928.4801      291.569   -758.00595   -466.43695    -594.7239   -98.843808    4887.0765   -1665.3983    108.91085    185.86718    612.61429            0    907.39232    -6453.631   -48.271156      16.5843      16.5843      16.5843            0            0            0   -2041.5453    122.40551    2413.1845    4765.0146   -7644.3259    -2906.129 
   40000    4561.3294    312.19537    -3380.976    316.40233   -762.67057   -446.26824   -671.17858   -85.217754    4882.2241   -1657.6667    109.97164    168.36122    616.66324            0    894.99611    -6454.673   -48.271156      16.5843      16.5843      16.5843            0            0            0   -2615.4616    2341.3759    -2249.408   -3051.5974   -6136.7218   -954.60884 
   41000    4561.3294    307.57003    -4772.465    311.71467   -749.05229   -437.33762   -754.81302   -80.633768    4885.8894   -1652.6965    107.26383    179.48196    616.89838            0    903.64417   -6457.9521   -48.271156      16.5843      16.5843      16.5843            0            0            0   -4011.6204    4686.9768   -213.57326    -389.8406   -10562.382   -3365.1719 
   42000    4561.3294    282.15789    -2815.376    285.96008   -752.01071   -466.05063   -653.33594   -92.757416    4924.3883    -1627.919    105.28594    154.52818    616.09419            0    875.90831   -6459.5499   -48.271156      16.5843      16.5843      16.5843            0            0            0    3327.2344   -1811.0137    178.84021   -2831.0056   -4414.5259   -1200.5965 
   43000    4561.3294    309.94105   -3410.0752    314.11764   -753.97839   -439.86075   -666.70684   -85.844178    4896.7359    -1646.805    113.65944    156.94198    622.22523            0    892.82665   -6457.6967   -48.271156      16.5843      16.5843      16.5843            0            0            0    -1835.205    1850.3407     399.6425   -3043.2966    -5253.947    -1932.982 
   44000    4561.3294    307.19811   -3008.9643    311.33774   -787.20153    -475.8638   -676.02706   -96.218178    4890.2195   -1663.6616    91.527795    166.22495    618.70734            0    876.46008    -6457.663   -48.271156      16.5843      16.5843      16.5843            0            0            0    449.02739    1717.7249   -1523.8387    16.233352   -4754.8128   -4288.3135 
   45000    4561.3294    295.16936   -1094.7389    299.14689   -745.57513   -446.42824    -519.2528    -84.82368    4901.8912   -1636.1742    116.47709    152.59585    621.52608            0    890.59902   -6453.2417   -48.271156      16.5843      16.5843      16.5843            0            0            0    4498.6987     1209.531    3574.8884     -2125.89   -17.367396   -1140.9591 
   46000    4561.3294    299.62704   -2461.0483    303.66464    -759.6261   -455.96146   -619.67608   -97.883146    4884.8193   -1666.2593     122.4094    162.95405    621.26976            0    906.63322   -6453.1955   -48.271156      16.5843      16.5843      16.5843            0            0            0   -491.48936   -92.087794    849.37738   -3588.5038   -2135.5255   -1659.1155 
   47000    4561.3294    294.39308    524.15427    298.36015   -746.74725    -448.3871   -413.51915   -82.864684    4889.5443   -1646.6464    92.087572    182.94006    624.87157            0     899.8992   -6453.3261   -48.271156      16.5843      16.5843      16.5843            0            0            0    66.303059    2222.6685   -4343.4433   -1516.5782    6099.4451    -3010.404 
   48000    4561.3294    290.39998    -268.7824    294.31324   -734.60388   -440.29065   -458.17067   -86.099104      4910.32   -1629.2309    99.432386    171.90218    623.29243            0    894.62699   -6453.4518   -48.271156      16.5843      16.5843      16.5843            0            0            0    4938.4877   -1630.6304   -2573.9255   -405.21885    2404.5064   -2805.6348 
   49000    4561.3294    300.11899     90.89085    304.16322   -767.08762    -462.9244   -456.87813   -76.717786    4888.3987   -1646.0387    98.080598    168.98677    611.88375            0    878.95112   -6457.7196   -48.271156      16.5843      16.5843      16.5843            0            0            0   -1583.8524    3392.9948   -780.51611    2640.6541   -2086.7024   -281.27906 
   50000    4561.3294    316.64207    747.91046    320.90895   -740.78917   -419.88022   -370.12749   -92.006111    4907.7118   -1641.2009    115.98935    160.48504    623.93732            0    900.41171   -6456.9066   -48.271156      16.5843      16.5843      16.5843            0            0            0     1.885389    5793.6706   -604.87831    1434.9386   -1124.3795    1933.1723 
   51000    4561.3294    293.38804    1603.0231    297.34157   -766.33713   -468.99556   -362.35876    -80.19841    4893.2829   -1644.6862     110.5804    149.09262    618.67607            0    878.34909   -6457.7707   -48.271156      16.5843      16.5843      16.5843            0            0            0    1646.7493    1693.2082   -459.75471    1671.3328    2742.9959    394.74081 
   52000    4561.3294    303.96367   -4208.8047    308.05971   -768.59269   -460.53299    -740.5124   -94.334686    4913.3182   -1636.2914    110.18118     138.8145    618.70305            0    867.69873   -6455.2749   -48.271156      16.5843      16.5843      16.5843            0            0            0     1791.063   -1348.0228   -2379.6775    -1793.199   -4447.2034   -6386.0118 
   53000    4561.3294    297.24954   -1306.6531    301.25511   -729.64766   -428.39255   -515.31414   -102.06123    4929.2525   -1629.0907    104.68887    173.92826    620.82594            0    899.44307    -6456.282   -48.271156      16.5843      16.5843      16.5843            0            0            0   -1837.5025   -2275.5276   -4553.0846   -2819.3878   -976.33215   -124.23929 
   54000    4561.3294     298.3513   -830.06191     302.3717   -734.12301    -431.7513   -486.96894   -91.320771    4929.3519   -1619.7843    104.66727    161.98466    619.00939            0    885.66132   -6457.8155   -48.271156      16.5843      16.5843      16.5843            0            0            0   -3178.8463    1995.2009   -2185.5314   -6026.1986   -1409.0239    4945.0368 
   55000    4561.3294    282.33857    -4638.461     286.1432   -752.66462   -466.52142   -775.08257   -65.266694    4872.3627   -1645.7968    101.34978    171.79377     619.9886            0    893.13215   -6452.8928   -48.271156      16.5843      16.5843      16.5843            0            0            0   -4461.8667   -161.86642    1618.7311   -4296.1862   -9056.1695   -563.02738 
   56000    4561.3294    278.98369   -4455.1118    282.74312   -766.42544   -483.68233   -780.04666   -84.593654    4906.5336   -1634.7277    111.17209    140.10672    617.02347            0    868.30229   -6456.6677   -48.271156      16.5843      16.5843      16.5843            0            0            0   -3205.9616    660.89354   -1571.3191    824.64013   -6685.2718   -7504.7038 
   57000    4561.3294    298.13551   -576.26566    302.15301   -739.35766   -437.20465   -475.53917   -97.764483    4943.9174   -1607.3674    110.27195    141.63494    616.10283            0    868.00972   -6453.5203   -48.271156      16.5843      16.5843      16.5843            0            0            0   -1466.3756   -2688.3857    317.81741    816.91777    684.13773   -3229.8525 
   58000    4561.3294    298.08188    -1028.073    302.09866   -771.29519   -469.19653   -537.58632   -95.266608    4918.5674    -1631.412    99.518721    140.69582    619.90232            0    860.11686   -6454.7129   -48.271156      16.5843      16.5843      16.5843            0            0            0   -1649.3103    4547.1671   -843.28228   -3620.5564    1820.9459   -1284.6083 
   59000    4561.3294    302.14099   -4924.8433    306.21247   -748.93896   -442.72649   -770.33844   -85.022416    4903.4142   -1635.4725    106.09263    168.45801    611.98295            0    886.53359   -6453.8644   -48.271156      16.5843      16.5843      16.5843            0            0            0   -866.78989   -1254.9136   -192.54281   -3799.6159   -3264.7108    -7710.203 
   60000    4561.3294    274.63201    1790.3184    278.33279   -745.12874   -466.79595   -347.69983   -85.606108    4906.9096   -1632.9882     93.73174    182.55085    611.57687            0    887.85946   -6454.2917   -48.271156      16.5843      16.5843      16.5843            0            0            0    1263.4145    256.57387   -2524.8059    386.43534    876.67296    4107.8469 
   61000    4561.3294     277.9769    3695.8448    281.72275   -762.96673   -481.24398   -235.38784   -85.809132    4914.2472    -1628.198    98.964566    158.93555    607.33115            0    865.23127    -6456.636   -48.271156      16.5843      16.5843      16.5843            0            0            0   -405.93784    2454.9462    3593.2772   0.38765586    2191.0996    8896.0472 
   62000    4561.3294    318.16504   -926.06183    322.45245   -772.01661   -449.56416   -511.16794   -92.448039    4907.4505   -1640.8755    109.37828    145.65003    613.83057            0    868.85887   -6455.8779   -48.271156      16.5843      16.5843      16.5843            0            0            0    5755.6856   -1537.7221   -424.08467   -4967.9881   -2575.3424     4765.145 
   63000    4561.3294     330.5233    1541.0392    334.97724   -785.69738   -450.72014   -348.20665   -102.24552    4917.7846    -1643.506    90.962765    155.48806    611.35782            0    857.80865   -6459.0452   -48.271156      16.5843      16.5843      16.5843            0            0            0   -1075.9921   -3103.2713    1283.0619    470.05143    2966.0051    1187.0611 
   64000    4561.3294    283.27663    1080.8447     287.0939   -767.83336   -480.73946   -408.83918   -90.943493    4921.5685   -1628.8235    98.831695    147.31641    614.84204            0    860.99014   -6459.4485   -48.271156      16.5843      16.5843      16.5843            0            0            0    847.76557    4017.8734   -3769.8763   -1016.9976   -95.475669    4355.0074 
   65000    4561.3294     296.6412   -4695.3275    300.63856   -765.00842   -464.36986   -776.71389   -101.03188    4900.1665   -1660.2131    97.520234    172.17748    625.50696            0    895.20467   -6459.3477   -48.271156      16.5843      16.5843      16.5843            0            0            0    637.50987   -901.25093   -402.46596   -5222.0556   -7137.2173   -1726.7095 
   66000    4561.3294    301.48935    1879.6641    305.55204   -776.85764    -471.3056     -346.266    -86.73727    4897.0717   -1649.9989    94.297764    159.71739    619.12609            0    873.14124   -6460.3334   -48.271156      16.5843      16.5843      16.5843            0            0            0    -3463.756    1498.1311     813.0644    1840.5182   -1672.0546    5470.5287 
   67000    4561.3294    325.87684    866.26219    330.26817   -751.70354   -421.43537    -363.8096   -86.919786    4910.7941   -1634.8929    103.99957    159.83489    619.35495            0    883.18941   -6458.7673   -48.271156      16.5843      16.5843      16.5843            0            0            0    2966.7002   -2473.1616   -740.43749    3854.6492    245.63956   -1501.5022 
   68000    4561.3294    289.81227   -2924.9777    293.71761   -753.64664   -459.92903    -654.5053   -118.46537     4933.533   -1642.1446     102.5784    164.15441    621.76517            0    888.49798   -6457.2123   -48.271156      16.5843      16.5843      16.5843            0            0            0   -2234.9021    4166.5566    2757.3591   -2070.9411   -5505.3272   -1198.6649 
   69000    4561.3294    301.46024   -1381.4156    305.52254   -744.14633   -438.62378   -530.51874   -122.31103      4944.38   -1635.3638    103.03512    160.04458    628.13773            0    891.21743   -6457.4328   -48.271156      16.5843      16.5843      16.5843            0            0            0    147.24346   -4650.5038   -14.023226    2076.9741   -790.20079   -5431.0203 
   70000    4561.3294    305.35365   -1980.6662    309.46842   -757.25681   -447.78839   -579.54688   -100.65036    4914.3746   -1640.7095    85.964604    174.38731    623.10082            0    883.45273   -6454.4338   -48.271156      16.5843      16.5843      16.5843            0            0            0    1256.4145   -3.9037668   -1525.6768   -821.69491    2097.1102   -7217.4138 
   71000    4561.3294    287.06485    1611.0513    290.93317   -748.07901   -457.14584   -349.97499   -74.758983     4910.407   -1623.6873    107.57852    146.67178    621.35802            0    875.60831   -6459.3354   -48.271156      16.5843      16.5843      16.5843            0            0            0     2366.497   -2921.6025    4444.3116    525.20226    2843.7098    1464.2418 
   72000    4561.3294    301.57524   -3100.6615     305.6391   -728.55246   -422.91337   -629.17653   -100.43802    4943.2857   -1613.8666    104.57599    156.21459    624.52356            0    885.31413   -6456.7142   -48.271156      16.5843      16.5843      16.5843            0            0            0    1233.1201   -263.43903   -1037.7714   -3466.2661    875.63125   -6711.3495 
   73000    4561.3294     302.4975    3086.6856    306.57378   -746.04444   -439.47066   -234.13721   -94.232321    4918.3533   -1637.3563    98.233931    168.84858    624.22936            0    891.31188   -6461.4773   -48.271156      16.5843      16.5843      16.5843            0            0            0   -103.81713    618.86058   -466.74045    2676.9848    7473.8114   -890.73942 
   74000    4561.3294    280.67648   -2202.1622    284.45871   -764.78109   -480.32238   -626.81529   -85.996158    4889.1849   -1649.5119     106.0981    157.64739    620.98529            0    884.73077   -6452.7006   -48.271156      16.5843      16.5843      16.5843            0            0            0    3757.9033   -1747.5667    515.71561    -5812.587   -1292.5173    498.61779 
   75000    4561.3294    311.52693    5536.0938    315.72489   -740.60811   -424.88322    -56.60947   -82.818535    4927.9551   -1611.6514     85.73873    158.14338    627.16115            0    871.04325    -6456.788   -48.271156      16.5843      16.5843      16.5843            0            0            0   -3446.2245    -552.6811     -3073.06    1762.6674    10278.917    4566.6968 
   76000    4561.3294    300.72054    548.34621    304.77287   -775.71322   -470.94035    -434.4631   -96.839308    4917.7056   -1636.8579    97.554408    136.68549    626.90483            0    861.14472   -6457.7243   -48.271156      16.5843      16.5843      16.5843            0            0            0    1193.1082   -822.24139    2359.0914   -2231.6564    1167.8955    2708.7995 
   77000    4561.3294    306.04711   -3098.4222    310.17122   -751.03725   -440.86603   -646.98023   -89.577801    4907.2795   -1638.9746    108.23143    167.53788    612.16801            0    887.93732   -6456.6762   -48.271156      16.5843      16.5843      16.5843            0            0            0    440.52843    539.93269    2456.4709   -1891.8023   -7292.5961   -110.86837 
   78000    4561.3294    316.85945   -2580.0491    321.12927   -767.54082   -446.41156   -618.04238   -117.74722    4927.2042   -1641.9907    89.097937      168.418    616.93395            0    874.44988   -6451.4477   -48.271156      16.5843      16.5843      16.5843            0            0            0   -2835.5539   -2795.1429   -1673.2687   -1344.6011   -7034.4668    638.92066 
   79000    4561.3294       300.31   -690.62619     304.3568   -780.94505   -476.58825    -522.5303   -101.59721    4908.0784   -1648.0924     91.53277    156.65789    618.95668            0    867.14734   -6454.5736   -48.271156      16.5843      16.5843      16.5843            0            0            0   -309.56386    565.90423   -18.986283    864.34813    -4888.862    1952.6353 
   80000    4561.3294    295.71286   -4088.8078    299.69771   -745.97191   -446.27419   -718.27113   -88.740753    4924.4261   -1621.3019    101.98531     151.4022     621.9425            0    875.33001   -6456.9872   -48.271156      16.5843      16.5843      16.5843            0            0            0    76.988008    535.49682   -1168.0794   -1076.2486   -4121.4036   -7068.7712 
   81000    4561.3294    290.50151    -857.9449    294.41614   -729.17775   -434.76161   -491.83409   -78.150051    4896.8893   -1633.0561     117.3601     167.0408    619.47746            0    903.87835   -6451.7953   -48.271156      16.5843      16.5843      16.5843            0            0            0   -783.01392    258.76671      128.758   -2423.8036    2616.8103   -2766.8414 
   82000    4561.3294    302.52437    143.92168    306.60102    -750.3083   -443.70728   -434.13328   -69.776483    4875.9017   -1650.0684    99.106289    180.19761    620.45617            0    899.76007   -6456.1936   -48.271156      16.5843      16.5843      16.5843            0            0            0   -978.81159    2341.4343    1100.4149   -143.01394    3695.7993   -3121.0204 
   83000    4561.3294    284.33508    4019.4474    288.16661   -757.70895   -469.54234   -202.15941    -65.86615    4863.1985   -1658.8166    101.38906    185.34478    614.37381            0    901.10766   -6456.1489   -48.271156      16.5843      16.5843      16.5843            0            0            0   -31.628459   -3437.0199    -1383.131    950.02197    5456.6372     5651.683 
   84000    4561.3294    308.36674   -1102.3907    312.52211   -760.96856   -448.44645   -521.78003   -77.981903    4892.9663   -1642.3509    105.92155     160.1971    615.26368            0    881.38233   -6457.3353   -48.271156      16.5843      16.5843      16.5843            0            0            0   -2520.8763    967.40282   -1805.3545    -3851.041    2921.4433   -2377.5744 
   85000    4561.3294    305.68661    3157.9197    309.80587   -745.66208   -435.85621    -225.7841   -87.788241    4906.9361   -1634.8061    110.75283    161.27731    617.11383            0    889.14398   -6453.9539   -48.271156      16.5843      16.5843      16.5843            0            0            0   -75.148632    -1032.306   -216.71119    7078.2118   -405.53138    2801.0787 
   86000    4561.3294    267.40973    -1966.769    271.01319   -786.09212   -515.07893   -645.91294   -107.64867    4889.5411    -1672.044    86.858081    183.68387    615.40994            0    885.95188   -6453.9364   -48.271156      16.5843      16.5843      16.5843            0            0            0   -2709.4131    1200.0724    99.698187   -979.42337   -3302.2352   -1618.6483 
   87000    4561.3294    312.84376    -5677.163    317.05946    -766.8724   -449.81293   -827.47093    -87.53615    4872.2201   -1670.0972    101.87239    177.88245       623.47            0    903.22484   -6454.7812   -48.271156      16.5843      16.5843      16.5843            0            0            0    1349.1032   -2479.7624    5.6728348   -3325.3035   -9308.5148   -4397.6706 
   88000    4561.3294    300.53807   -3736.5558    304.58795   -744.72017   -440.13222   -688.69655   -80.288428    4910.4428   -1625.5767    107.07316      155.066    618.71735            0    880.85651   -6455.7311   -48.271156      16.5843      16.5843      16.5843            0            0            0   -1939.5095   -36.126127      1066.42   -5467.1306   -2608.2416   -3134.2953 
   89000    4561.3294    307.68983   -1214.4476    311.83608    -750.3286   -438.49252   -519.28038   -64.220528    4861.3244    -1656.612    103.78075    170.00743    632.49517            0    906.28335   -6453.7159   -48.271156      16.5843      16.5843      16.5843            0            0            0   -695.53825    46.537966    2298.9378    3603.3111   -4522.7582   -2723.8956 
   90000    4561.3294     323.4823     1732.828    327.84136   -739.81986    -411.9785   -296.70678   -77.054794    4907.3249    -1623.663     103.5468    158.61116     621.6852            0    883.84316   -6453.9331   -48.271156      16.5843      16.5843      16.5843            0            0            0   -4219.0418   -3190.1597   -296.93828    2119.7755    33.027134    3045.6813 
   91000    4561.3294    293.24961    4277.8267    297.20127   -738.77262   -441.57135   -157.00044   -83.581824    4879.1665   -1658.7163    101.95817    191.67909    626.30644            0    919.94369    -6454.301   -48.271156      16.5843      16.5843      16.5843            0            0            0    359.62682    204.91455   -510.57907    3517.5211    2490.4405    6825.5185 
   92000    4561.3294    280.88244     2358.391    284.66745   -755.02921   -470.36176   -313.47615   -61.525304    4863.3276   -1648.0221     104.4464    160.95848    627.58803            0     892.9929   -6449.8244   -48.271156      16.5843      16.5843      16.5843            0            0            0   -1963.6796   -1848.6698    1244.6977    4702.8379     591.4977    1780.8373 
   93000    4561.3294    286.88354    612.01056    290.74942   -724.63303   -433.88361   -393.17125   -60.630286    4862.3834   -1649.4598    106.52171    191.36231    626.94277            0    924.82679   -6451.2129   -48.271156      16.5843      16.5843      16.5843            0            0            0   -3154.1076   -1071.1068   -1320.9837    3695.9322    2804.1701   -4664.0706 
   94000    4561.3294    301.62146    2945.3678    305.68593   -768.71585   -463.02992   -267.09725   -83.807756    4900.2994   -1640.4047    88.687416    156.88932    626.11214            0    871.68888   -6456.8963   -48.271156      16.5843      16.5843      16.5843            0            0            0   -319.61624   -851.02138   -1305.0262    2354.3086    3770.5248      2711.27 
   95000    4561.3294    287.22835    2594.7633    291.09887   -758.69851   -467.59964   -294.98999   -95.407554    4913.8192   -1635.7616    88.952435    163.38126    624.72938            0    877.06308   -6454.1733   -48.271156      16.5843      16.5843      16.5843            0            0            0    998.63351   -1295.2535    522.51849    2619.7491    1852.7665    3311.7743 
   96000    4561.3294    322.93521   -91.588065    327.28689    -746.7627   -419.47581   -425.56846   -97.087758    4923.4554   -1627.9748    90.059736    173.34975    617.80259            0    881.21207   -6454.3424   -48.271156      16.5843      16.5843      16.5843            0            0            0   -2627.9957    1223.1873     524.7183     1577.674   -4889.6861    3037.2478 
   97000    4561.3294    293.81991   -1353.3391    297.77925   -762.90586   -465.12661   -555.15385   -96.240238    4913.6725   -1637.0702     94.96168    161.71371    617.48893            0    874.16432   -6454.5025   -48.271156      16.5843      16.5843      16.5843            0            0            0     3779.351    -2973.667   -1776.5912   -1590.6473      540.344   -3009.7141 
   98000    4561.3294    286.25274    2380.1995    290.11011   -770.09386   -479.98374   -321.64738   -98.643937    4917.7716   -1634.1789    87.924833    154.31949    621.84069            0    864.08501   -6453.3066   -48.271156      16.5843      16.5843      16.5843            0            0            0     876.7371    424.19723   -55.086108    3071.9505    3364.2623    704.38563 
   99000    4561.3294    321.34865   -1353.5237    325.67896   -747.62276    -421.9438   -511.98332   -92.116484    4920.6558   -1625.7728    96.493286    166.53337    615.12338            0    878.15004   -6454.3121   -48.271156      16.5843      16.5843      16.5843            0            0            0    1734.0883   -2217.6416    2658.6814   -9783.3754    1198.6978    4524.1066 
  100000    4561.3294    287.37748   -1418.2048    291.25001   -738.45167   -447.20166   -541.54392   -88.163575     4903.686   -1638.2411    116.16801    175.75272    607.86866            0    899.78939   -6453.7635   -48.271156      16.5843      16.5843      16.5843            0            0            0    2205.9077   -2814.1026    4140.3359   -5634.6446      998.885    381.14519 
  101000    4561.3294    296.07126    3570.1348    300.06094   -736.00996   -435.94902   -198.45541   -86.339027    4904.8718   -1631.3353    100.64136    178.05421    616.62975            0    895.32532    -6449.868   -48.271156      16.5843      16.5843      16.5843            0            0            0   -2547.6699    -57.40201    3253.4794   -1055.4802    5311.2098    6454.6747 
  102000    4561.3294     288.2364    43.450046    292.12051   -751.09229   -458.97179   -456.08139   -87.079975    4894.9198     -1643.69    102.74873    172.16456    617.68443            0    892.59772   -6451.5299   -48.271156      16.5843      16.5843      16.5843            0            0            0     1068.307   -125.99411   -2682.5056     4305.508    -34.02756   -4141.1303 
  103000    4561.3294    298.24084   -5091.0368    302.25976    -737.5442   -435.28444   -773.95197   -89.639486    4897.3421   -1644.1895    112.59826    173.31315     620.7339            0    906.64531   -6451.8921   -48.271156      16.5843      16.5843      16.5843            0            0            0    1765.9148    687.46857    2399.3171   -8179.8533   -4129.0329   -2964.2242 
  104000    4561.3294    289.34392   -138.43012    293.24295   -748.35724   -455.11429   -464.32298   -97.768577    4901.7279   -1647.1133    113.28966    167.45384    618.01259            0     898.7561   -6451.0727   -48.271156      16.5843      16.5843      16.5843            0            0            0   -1593.5466    1663.7377    1892.9321   -4204.6662    6913.6282   -3124.2523 
  105000    4561.3294    301.08441    1681.2511    305.14165   -757.88419   -452.74255   -340.90184   -74.778802    4879.7043   -1650.7066    107.35914    165.80478    619.65849            0    892.82241   -6455.6321   -48.271156      16.5843      16.5843      16.5843            0            0            0    379.20076    1067.6188    4624.5976    5536.7127     2271.961   -2764.9203 
  106000    4561.3294    323.18307    1825.2602     327.5381   -734.73254   -407.19444   -285.77392    -57.10612    4879.5755   -1628.2166    108.67991    166.01269     618.7915            0     893.4841    -6450.686   -48.271156      16.5843      16.5843      16.5843            0            0            0   -4466.8457   -1303.9629   -425.44233    2531.4211   -737.56381    3681.9234 
  107000    4561.3294    310.25036   -3176.6413    314.43111   -762.82975   -448.39864   -659.71615   -77.476111    4889.0835   -1642.6348    100.44275    163.74638    615.61596            0    879.80509   -6454.2423   -48.271156      16.5843      16.5843      16.5843            0            0            0   -1502.6423    2032.9466    2461.8587   -5112.1239   -5511.9039    1094.1039 
  108000    4561.3294     292.6454   -592.49543    296.58892   -747.64256   -451.05363    -490.4678   -62.054372    4857.6239   -1657.0219    102.96557     183.3923     623.0215            0    909.37937   -6452.5915   -48.271156      16.5843      16.5843      16.5843            0            0            0      1161.39    2133.2281   -3381.6572    5057.8002   -6249.7024   -585.58411 
  109000    4561.3294    294.68267   -330.20973    298.65365   -746.07151   -447.41786   -469.38418    -74.55486    4907.6083   -1621.6753    99.143266    157.04588    619.41465            0     875.6038   -6454.7288   -48.271156      16.5843      16.5843      16.5843            0            0            0   -191.00144    2639.3807     1775.883   -4255.8968   -2176.8287    5442.0963 
  110000    4561.3294    289.23295   -2430.4917    293.13049   -771.67592   -478.54543   -640.22735    -86.46506     4887.576   -1652.8773    103.92424    160.80775    616.46939            0    881.20138   -6453.9882   -48.271156      16.5843      16.5843      16.5843            0            0            0    582.43297    1091.3006   -5973.1479     3991.073   -2406.9191   -8875.6289 
  111000    4561.3294    301.22001   -1874.1795    305.27907   -757.24224   -451.96317   -576.63792    -83.21234    4900.2768   -1638.0006    95.865591    173.80166     611.0911            0    880.75835    -6455.065   -48.271156      16.5843      16.5843      16.5843            0            0            0    -4941.348   -4819.9508    -2146.049    407.10499   -1713.1147   -4316.5288 
  112000    4561.3294     307.1964    968.13555      311.336   -738.32452   -426.98852    -362.5859   -74.894106    4898.8665   -1633.4652    107.14968    166.18652    621.80448            0    895.14068   -6457.4376   -48.271156      16.5843      16.5843      16.5843            0            0            0    892.10271    2755.6917    82.212351    940.19719   -1939.1307    3903.3402 
  113000    4561.3294    290.93869    155.89118    294.85921   -758.22587   -463.36666   -452.99642   -86.043446    4899.5374   -1640.3253          101    161.56537    619.53404            0    882.09941   -6453.8192   -48.271156      16.5843      16.5843      16.5843            0            0            0   -3137.1149   -30.257894   -1370.1725    3518.1271   -3692.7288    642.27517 
  114000    4561.3294     294.0026     3160.427    297.96441   -737.16653   -439.20212   -228.96322   -64.904657    4864.1671    -1650.785     105.8008    180.28287    627.53482            0    913.61849   -6450.0474   -48.271156      16.5843      16.5843      16.5843            0            0            0   -235.67109    2113.6125   -2418.8598    730.43484    4661.2589    4089.5873 
  115000    4561.3294    292.09513     2636.214    296.03123   -750.60913   -454.57789   -279.21085   -87.172945    4893.6866   -1641.2459    89.956117    173.17996     627.5007            0    890.63678   -6447.7596   -48.271156      16.5843      16.5843      16.5843            0            0            0    3056.3457    195.46018    426.03976    9068.2737    -2712.658    1553.0262 
  116000    4561.3294    307.03198    898.06047    311.16936    -716.9847   -405.81534   -346.07428   -85.251094    4929.0839   -1604.3586    102.45657    166.38024    618.53709            0    887.37389   -6448.1914   -48.271156      16.5843      16.5843      16.5843            0            0            0    -1460.498   -329.12296   -2843.0511    5115.3377     -777.276   -1643.8803 
  117000    4561.3294    305.05188    4129.1441    309.16258   -752.76379   -443.60121     -168.921   -82.377819    4896.3579   -1633.2592     96.42151     164.2767    619.79716            0    880.49536   -6447.2393   -48.271156      16.5843      16.5843      16.5843            0            0            0    2.0971352   -962.74826   -1703.8579    5897.9575    8659.9837    -2170.509 
  118000    4561.3294    315.90267    -3431.423    320.15959   -753.12002   -432.96042   -661.22661    -93.67834    4901.2903   -1643.5201    106.35641    160.38377    623.65991            0    890.40009   -6451.1321   -48.271156      16.5843      16.5843      16.5843            0            0            0   -2037.8344    1328.4729   -803.36677   -4440.5487   -6012.3308    158.61064 
  119000    4561.3294    307.98622    834.53208    312.13646   -732.76735   -420.63089   -365.11589   -77.155336    4896.4133   -1633.4419    108.08886    171.55682    621.02885            0    900.67452   -6452.6999   -48.271156      16.5843      16.5843      16.5843            0            0            0    274.12321   -2972.2068   -1952.3238   -1880.5237    2130.1117    2254.0082 
  120000    4561.3294    288.28423    3239.6572    292.16898   -745.91501   -453.74603   -238.23655    -48.43568    4873.4642   -1629.2841    102.10822    163.42365    617.83724            0    883.36911   -6454.3126   -48.271156      16.5843      16.5843      16.5843            0            0            0    898.40319    6.4654066   -7879.6864    2756.9458    802.11105    6159.9147 
  121000    4561.3294    314.45161   -3323.4162    318.68897     -727.344   -408.65503   -629.73635   -86.012323    4893.3926   -1646.1474    127.29339    163.20691    628.30309            0    918.80339   -6453.5277   -48.271156      16.5843      16.5843      16.5843            0            0            0    3791.8075   -67.105539    2193.9813   -6011.0074    2106.8547   -6066.0959 
  122000    4561.3294    288.96585    1792.4556    292.85978    -782.3254   -489.46562   -370.22733    -39.63431     4833.321   -1661.7931    102.05545    154.53597    622.87626            0    879.46768   -6455.4797   -48.271156      16.5843      16.5843      16.5843            0            0            0    2036.9397   -50.450126   -2100.9787    170.90018    1749.3261    3457.1405 
  123000    4561.3294    308.18812   -334.29828    312.34108    -746.9524   -434.61131   -456.84961   -84.698589    4900.1333   -1637.5859    98.043833    167.28958    625.30014            0    890.63355   -6453.0207   -48.271156      16.5843      16.5843      16.5843            0            0            0    3591.7112    926.86305    1511.8482   -254.27577     -1546.31    797.69088 
  124000    4561.3294    293.89682      507.816     297.8572   -758.58667   -460.72947   -426.94838   -55.037196    4858.0157   -1648.4474    104.28425    166.08695    619.48948            0    889.86068   -6451.4259   -48.271156      16.5843      16.5843      16.5843            0            0            0   -1386.0039    4434.8594   -2043.8766   -1544.7503    1893.9633     1174.235 
  125000    4561.3294    305.77843   -4104.9294    309.89892   -735.92494   -426.02602    -699.0954   -58.374353    4866.8863    -1642.174    107.65322    177.95067    620.64514            0    906.24903   -6450.6859   -48.271156      16.5843      16.5843      16.5843            0            0            0    1880.8107   -1095.1067    2160.0049   -11366.811    1723.8947   -2671.8714 
  126000    4561.3294    289.11415    -474.2617    293.01008   -739.52355   -446.51347   -478.06245   -61.314111    4867.0068   -1645.6778    107.25436    181.29572    617.60421            0    906.15429   -6451.3706   -48.271156      16.5843      16.5843      16.5843            0            0            0   -1036.7005   -89.156984    -2789.594     -1485.61    3801.0537   -3738.2288 
  127000    4561.3294    307.08182     6275.273    311.21988   -730.72659   -419.50671   -2.0610525   -76.926358    4892.2168    -1636.915     98.19687    181.79961    626.19188            0    906.18836   -6452.2054   -48.271156      16.5843      16.5843      16.5843            0            0            0    4394.2936     3931.127   -284.91949    7446.1903    4962.9439    6416.6848 
  128000    4561.3294    298.34833   -5504.2333     302.3687   -766.70152   -464.33282   -830.48713   -73.819463    4866.4067   -1661.3819    99.965356    175.03327    619.68178            0     894.6804   -6453.9692   -48.271156      16.5843      16.5843      16.5843            0            0            0    2308.2524    1980.1481   -2429.4469   -5901.6038   -3554.6058   -7056.4901 
  129000    4561.3294    292.61725   -5244.8675    296.56039    -719.9782   -423.41781   -772.31852   -91.246523    4905.8535   -1637.4854    114.30342    180.64717    622.55664            0    917.50723   -6452.0924   -48.271156      16.5843      16.5843      16.5843            0            0            0   -2119.6001   -1475.0715   -1112.9542   -1502.5647   -8417.4737   -5814.5642 
  130000    4561.3294    289.43784   -274.23452    293.33814   -732.42017   -439.08203   -457.32475   -85.293913    4912.5312   -1629.2475    107.25531    174.13385    615.43819            0    896.82734   -6456.4848   -48.271156      16.5843      16.5843      16.5843            0            0            0     3632.953   0.48164227   -2295.7656   -4429.7768    1493.2358    2113.8375 
  131000    4561.3294     299.5187   -3151.3862    303.55484   -754.75237   -451.19754   -660.83503   -93.323381    4914.5041   -1626.1748     97.30898    148.68752     625.4259            0     871.4224   -6447.3554   -48.271156      16.5843      16.5843      16.5843            0            0            0    58.689646    832.29882   -4183.5546    381.85043   -4101.0085   -5735.0006 
  132000    4561.3294    307.13488   -183.90482    311.27366   -720.64731   -409.37365   -421.60743   -91.208933    4923.0374   -1625.1646    110.10387    170.33967    624.07379            0    904.51732   -6456.9931   -48.271156      16.5843      16.5843      16.5843            0            0            0    2009.2059   -1526.7713    1629.8895    4324.6683   -2490.3413   -2386.0414 
  133000    4561.3294    288.32145    504.60669    292.20671   -757.16351    -464.9568    -431.3892   -88.771769    4926.2898   -1615.6436    90.467466    157.96089    610.05174            0     858.4801   -6453.1616   -48.271156      16.5843      16.5843      16.5843            0            0            0    616.24208   -981.22655   -924.54807    2903.8575   -1323.9276   -66.109864 
  134000    4561.3294    293.90396   -1990.3528    297.86444   -739.56644   -441.70201   -574.10487   -78.180705    4906.9012   -1619.7252    92.278046    159.87666    628.00404            0    880.15875   -6448.4457   -48.271156      16.5843      16.5843      16.5843            0            0            0    166.79672   -1754.4542   -458.52896   -3527.5691    889.22825   -3332.7175 
  135000    4561.3294    318.41406    1596.4457    322.70482   -727.28794   -404.58312   -298.38387   -84.636236    4909.7062   -1630.6354    99.198034    177.81101    626.33845            0     903.3475   -6455.7054   -48.271156      16.5843      16.5843      16.5843            0            0            0     5950.248   -3224.0328   -1915.5009    1816.8679   -1875.0767    4847.5457 
  136000    4561.3294     318.9664    3724.7681     323.2646   -769.01323   -445.74863   -197.96845   -94.004035    4906.6184   -1637.9451    90.229817    151.80265    626.89941            0    868.93188   -6450.5595   -48.271156      16.5843      16.5843      16.5843            0            0            0   -1653.9143   -1153.2808    1935.9206    555.65765    8181.4869    2437.1597 
  137000    4561.3294    297.89145   -3955.1966    301.90567   -759.08479   -457.17912   -720.28794   -76.294398    4858.3684   -1675.2138    112.83938    185.69078    617.59889            0    916.12905   -6457.2878   -48.271156      16.5843      16.5843      16.5843            0            0            0   -559.95033    4086.7878    114.73056   -1141.5014   -3078.8957   -7645.1928 
  138000    4561.3294    285.19909   -184.68869    289.04226   -754.25353   -465.21127   -477.49719   -84.364857    4899.1594   -1637.3122      94.2086    169.49785    619.35219            0    883.05864   -6452.1067   -48.271156      16.5843      16.5843      16.5843            0            0            0   -3132.8223   -579.48765   -5037.9487    42.256098   -3294.4899    2698.1677 
  139000    4561.3294    278.83464    3676.0199    282.59206   -739.54471   -456.95265   -212.41531   -77.714323    4913.7631   -1619.4672    99.668319    159.30792    620.94622            0    879.92246    -6455.516   -48.271156      16.5843      16.5843      16.5843            0            0            0    1581.4055    1915.4515    -1481.179    4457.5618    453.67399    6116.8239 
  140000    4561.3294    286.95491   -6345.3819    290.82175   -769.47793   -478.65618   -900.76565   -104.55251    4907.3216   -1651.2127     94.37233    167.36857    619.99389            0    881.73479   -6453.9818   -48.271156      16.5843      16.5843      16.5843            0            0            0   -2010.1792   -1704.1347   -2302.2242   -1284.2801   -8169.5885   -9582.2772 
  141000    4561.3294    305.79843    5496.4638    309.91919   -714.68968   -404.77049   -39.133019   -67.202825    4908.5894   -1612.8646     105.0101    169.34773    623.81705            0    898.17489   -6454.2511   -48.271156      16.5843      16.5843      16.5843            0            0            0    -2667.422    4052.8797    2112.8996    2607.5205    5934.2547    7947.6161 
  142000    4561.3294    288.01138    1030.7462    291.89245   -749.19575   -457.30329   -388.73567   -70.444254    4906.5981   -1617.1043    91.502315    162.27407    614.13214            0    867.90853   -6453.2581   -48.271156      16.5843      16.5843      16.5843            0            0            0   -2215.4162   -3130.8728    1983.6085    316.36659    2559.7656    216.10651 
  143000    4561.3294    300.44828     734.1012    304.49695   -760.12242   -455.62547   -406.79136   -78.507681       4902.9   -1628.7647    99.159851    149.99604    619.48637            0    868.64226    -6453.157   -48.271156      16.5843      16.5843      16.5843            0            0            0    4154.3217    2172.9727    540.35886   -1626.3414    3854.8226   -26.177641 
  144000    4561.3294     285.6363    1870.8479    289.48537    -761.2353   -471.74993    -347.2968   -91.578897    4904.0015   -1640.8972    85.272775    169.30604    625.08307            0    879.66189   -6453.3198   -48.271156      16.5843      16.5843      16.5843            0            0            0    133.09053    29.508618   -781.37175    1973.3321    2599.6311    1039.5806 
  145000    4561.3294    316.89745   -1596.6878    321.16778   -737.64816   -416.48038   -522.69574   -103.22481    4941.6597   -1618.7421    106.48094    155.40773    619.20525            0    881.09392    -6457.177   -48.271156      16.5843      16.5843      16.5843            0            0            0   -947.22272   -1617.8503   -3013.8489   -958.91304   -6166.3096    2335.1592 
  146000    4561.3294    288.30724   -4369.8658     292.1923   -746.68556   -454.49326   -745.18683   -97.876299    4916.5869   -1634.6385    93.879125    162.69773    631.37606            0    887.95291   -6453.3491   -48.271156      16.5843      16.5843      16.5843            0            0            0   -1198.9654    2675.2912   -543.40047    1304.7221    -8398.736   -6015.5834 
  147000    4561.3294    294.61878   -807.98244    298.58889   -770.28095   -471.69205   -525.44091   -91.325571    4904.6366   -1639.5612    92.010037    159.46809     617.8021            0    869.28023   -6452.8722   -48.271156      16.5843      16.5843      16.5843            0            0            0    -2434.086   -4672.0679   -2082.0667    2660.3545   -2422.8221   -2661.4797 
  148000    4561.3294    288.23731   -1751.9842    292.12143   -735.50123    -443.3798   -559.92583   -103.50962    4939.3391   -1619.4111     94.88219    163.52443    625.50323            0    883.90985   -6455.2406   -48.271156      16.5843      16.5843      16.5843            0            0            0    1443.4542   -5985.3848    1075.0589    2029.5159   -1228.9547   -6056.5137 
  149000    4561.3294    301.40294   -1385.7032    305.46447   -755.23744   -449.77297   -541.95315   -95.942545    4901.7282   -1647.2963    91.392016    176.15611    624.51072            0    892.05885   -6453.0819   -48.271156      16.5843      16.5843      16.5843            0            0            0   -6041.9136   -2292.8308    725.76152    358.38831   -3635.0081   -880.48991 
  150000    4561.3294    299.15781    7180.3693    303.18909   -759.78077   -456.59168    21.063074   -83.127981    4935.8838   -1602.3492     81.48507    136.45487    624.62851            0    842.56845   -6455.1051   -48.271156      16.5843      16.5843      16.5843            0            0            0    134.87757   -641.09121    29.436125    9410.5747    5869.0882    6261.4451 
  151000    4561.3294    293.75037   -4640.3147    297.70878   -746.91827   -449.20949   -757.89395   -100.37892    4936.4323   -1615.3001    107.18724    138.08689    623.10768            0    868.38181   -6451.3535   -48.271156      16.5843      16.5843      16.5843            0            0            0   -148.98551    852.79819    2452.5589   -4438.5068     -5510.07   -3972.3673 
  152000    4561.3294     301.8208    4176.4758    305.88796   -731.65425    -425.7663   -147.93748   -58.158018    4888.3426   -1623.2642    90.093523    174.47803    627.03839            0    891.60994   -6453.4487   -48.271156      16.5843      16.5843      16.5843            0            0            0   -2627.1869   -966.43142   -3565.7665    3137.8358    6429.5954    2961.9962 
  153000    4561.3294    296.02908    2456.6924     300.0182    -736.3929    -436.3747   -272.94985   -104.52426    4946.1761    -1608.255    82.208728    166.68772    622.96564            0    871.86209   -6449.9069   -48.271156      16.5843      16.5843      16.5843            0            0            0    582.64057   -613.20125   -1467.9593    7301.0935   -2800.0349    2869.0185 
  154000    4561.3294    289.25003   -1825.5681    293.14779   -757.30993   -464.16214   -585.60315   -66.067606     4877.431   -1641.2212    102.33288    156.39028    625.18812            0    883.91128   -6452.5846   -48.271156      16.5843      16.5843      16.5843            0            0            0   -1329.8293   -1867.5781   -3086.9168   -114.10722   -2235.3952    -3127.202 
  155000    4561.3294    306.93609    264.19289    311.07218     -748.124   -437.05182    -419.4771   -65.522584     4884.153   -1634.3736    101.59213    157.20253     627.4549            0    886.24956   -6453.0039   -48.271156      16.5843      16.5843      16.5843            0            0            0    3255.5516    3267.6019   -624.37098    2695.1981    785.42617   -2688.0456 
  156000    4561.3294    330.19485    1634.0584    334.64436   -754.92477   -420.28041   -311.57907   -94.017449    4923.1181   -1627.8157     104.3816    146.41275    622.09654            0    872.89088   -6456.9163   -48.271156      16.5843      16.5843      16.5843            0            0            0     662.5071   -1515.3653   -516.53341     5743.031   -2139.4446    1298.5886 
  157000    4561.3294     298.8154   -3277.2146    302.84207   -729.87665   -427.03459   -645.04247   -63.996479    4868.0757   -1649.1626    113.70402     176.4122    629.16971            0    919.28593   -6453.2418   -48.271156      16.5843      16.5843      16.5843            0            0            0    1289.3836   -3793.0369   -1391.3102    -1288.712   -2213.1416     -6329.79 
  158000    4561.3294    298.05893    2120.3321     302.0754   -751.49917   -449.42377   -308.37438   -70.378644    4886.5347   -1637.1724    98.006986      162.984     624.6822            0    885.67319   -6453.3285   -48.271156      16.5843      16.5843      16.5843            0            0            0    -117.9479    4001.7765    931.77769   -311.34187    728.76732    5943.5709 
  159000    4561.3294    292.82995    2425.9768    296.77596   -742.28611   -445.51015   -284.12857   -72.662616    4897.4127   -1630.1706    96.241352    164.36254    627.28059            0    887.88449   -6454.9206   -48.271156      16.5843      16.5843      16.5843            0            0            0    955.50501    892.67912    2780.1492    1400.2766    2280.5267     3597.127 
  160000    4561.3294    293.68196    6428.8934    297.63945   -767.57574   -469.93629   -42.271445    -93.36477    4911.0896    -1638.381    79.052881    156.57524    635.17713            0    870.80525   -6456.1058   -48.271156      16.5843      16.5843      16.5843            0            0            0     1708.477   -1169.6187    1339.5066    9641.5028    2338.8247    7306.3528 
  161000    4561.3294    270.84181    2541.2034    274.49152   -755.46571   -480.97419   -311.92747    -94.76059    4917.1063   -1631.1711    80.966462    174.49781    620.24112            0    875.70539   -6453.5168   -48.271156      16.5843      16.5843      16.5843            0            0            0   -1281.6836   -3755.0623   -2490.6889     236.9933    4777.8667    2608.7503 
  162000    4561.3294    304.88111   -409.73967    308.98951   -745.67587   -436.68635   -463.94318   -90.144488    4929.3056   -1611.4548    96.676494    143.41434    625.68807            0     865.7789   -6450.6158   -48.271156      16.5843      16.5843      16.5843            0            0            0   -913.68648     1997.363   -1521.4044    1799.6018    767.48076   -3796.3016 
  163000    4561.3294    288.82497    2003.6905    292.71701   -773.19764   -480.48063   -347.19051    -84.29305    4904.3313   -1633.5354     90.38765    147.89766    622.05243            0    860.33774   -6453.5737   -48.271156      16.5843      16.5843      16.5843            0            0            0   -2822.2271   -722.82742    1819.2574   -2801.6649    2079.1785    6733.5579 
  164000    4561.3294    311.67513   -2688.3172    315.87509   -764.41561   -448.54053    -627.3736   -77.727923    4875.8331   -1657.0371    97.936304    169.13334    625.55187            0    892.62151   -6455.1423   -48.271156      16.5843      16.5843      16.5843            0            0            0    2693.4984   -2542.7861    843.44124    2614.6034   -2702.5259   -7977.0291 
  165000    4561.3294    307.69454    -4710.754    311.84085   -746.02968   -434.18883   -747.55907   -93.621865    4908.2822    -1637.819    87.571698    179.95429    624.26334            0    891.78934   -6452.4794   -48.271156      16.5843      16.5843      16.5843            0            0            0    3742.0427    1224.6537   -1717.1347   -6172.6209   -3169.2773   -4790.3637 
  166000    4561.3294    302.67291    24.751025    306.75155   -747.89787   -441.14632   -439.49983   -81.786326    4872.9158   -1661.5905    108.69489    184.73954    620.25824            0    913.69267     -6452.72   -48.271156      16.5843      16.5843      16.5843            0            0            0    1355.5796    1041.1546   -631.86616   -308.00546    562.20218   -179.94364 
  167000    4561.3294    304.93663   -1316.0094    309.04578   -731.35781   -422.31203   -509.85602   -91.047645    4906.0943    -1639.435    110.22402    167.82193     630.0312            0    908.07715   -6454.4816   -48.271156      16.5843      16.5843      16.5843            0            0            0    3777.8275    2128.7231   -909.96961   -1398.6181   -3338.4517    789.04153 
  168000    4561.3294    313.12975    394.81453    317.34931   -757.54289   -440.19358   -413.92961   -61.962339    4854.5437   -1661.5207    92.651849    188.80385    622.52207            0    903.97777   -6454.1021   -48.271156      16.5843      16.5843      16.5843            0            0            0   -1628.1184   -2168.4253    2344.8379   -384.84721    278.62189    1290.6689 
  169000    4561.3294    315.49418    2444.4672     319.7456   -773.38299    -453.6374   -291.02579   -61.653738    4861.3398   -1656.5245    105.07899    157.91685    620.14564            0    883.14148   -6456.2105   -48.271156      16.5843      16.5843      16.5843            0            0            0    3102.9706    2835.4324   -2607.6186   -831.89647    6056.0522    2109.2459 
  170000    4561.3294    297.53544    2021.9994    301.54485   -737.88509   -436.34024   -301.83216   -77.537295    4883.6098   -1648.3112    99.270393    194.96287    616.19281            0    910.42607   -6454.3836   -48.271156      16.5843      16.5843      16.5843            0            0            0   -392.17749    1294.5644   -2698.9863    1613.5693    1735.7464    2716.6826 
  171000    4561.3294    295.22796    1031.4614    299.20628   -751.26244   -452.05616   -383.44097   -71.685004    4885.7234    -1641.207    108.80445      158.248    622.89211            0    889.94456   -6455.2454   -48.271156      16.5843      16.5843      16.5843            0            0            0    1751.4863   -1637.4873   -4694.2305    4966.5832    327.34397   -2199.5431 
  172000    4561.3294    279.96848   -673.33395    283.74117   -764.02917   -480.28799   -525.07972   -73.196462     4869.804   -1660.6126     107.0499    167.98794     621.5456            0    896.58344   -6457.2202   -48.271156      16.5843      16.5843      16.5843            0            0            0   -5843.1827    976.32291   -4281.6248   -1791.3478    3240.3924   -3469.0465 
  173000    4561.3294    298.09647     986.4493    302.11344   -744.09005   -441.97661   -376.35573   -96.302126    4907.4404   -1641.1699    103.52118    163.84984    629.70882            0    897.07985   -6452.3081   -48.271156      16.5843      16.5843      16.5843            0            0            0   -1642.8521    729.05188    740.01849   -179.07468     1175.553    1962.8696 
  174000    4561.3294    302.09659    985.88432    306.16747   -749.03925   -442.87178   -377.28848   -88.821025    4897.8449   -1643.3761    111.57926    161.36795    621.38966            0    894.33688      -6452.4   -48.271156      16.5843      16.5843      16.5843            0            0            0   -4314.5034    824.33974    1630.5614     2613.157    2582.7209    -2238.225 
  175000    4561.3294    308.16754   -3500.8045    312.32023   -764.97527   -452.65504   -685.53664   -99.322733    4911.9581   -1637.5239    96.745752    154.88739     620.9155            0    872.54864   -6450.1593   -48.271156      16.5843      16.5843      16.5843            0            0            0    4474.6216   -9.4851018    3491.8758    -2765.866   -6555.5515    -1180.996 
  176000    4561.3294    273.79828   -3420.9276    277.48783   -737.67457   -460.18674   -687.75475    -99.39496    4934.7811   -1620.2006    97.778932    164.32006    620.42702            0    882.52602   -6455.5867   -48.271156      16.5843      16.5843      16.5843            0            0            0    3311.1315   -4.4493684    193.16169   -6701.4917     420.5181   -3981.8092 
  177000    4561.3294    285.63968   -880.40905     289.4888   -744.74888   -455.26008   -513.82693    -87.19191    4896.6535   -1645.4342    104.34625    170.07434    626.26476            0    900.68536   -6454.8958   -48.271156      16.5843      16.5843      16.5843            0            0            0    430.88524    1095.1417   -3100.4271     2721.914   -3448.1183   -1915.0229 
  178000    4561.3294    311.34482   -949.16324    315.54032   -754.72872    -439.1884   -502.32893   -86.825927    4898.8629   -1640.8012    101.42844    162.11584    622.52819            0    886.07247   -6452.8382   -48.271156      16.5843      16.5843      16.5843            0            0            0    -185.2914    128.49445     1283.205   -543.96281    1110.4622   -3413.9891 
  179000    4561.3294    296.44643   -2040.3596    300.44117   -755.63494   -455.19377   -590.92321   -97.233856    4911.3518   -1638.7713    106.56702    161.82817    614.74118            0    883.13637   -6452.8892   -48.271156      16.5843      16.5843      16.5843            0            0            0    619.14015   -1053.9373     602.9335    525.49539    -1990.113   -4656.4612 
  180000    4561.3294    277.39016    750.13525    281.12811   -745.36245   -464.23434   -414.33361    -88.08926    4907.0886   -1636.3627    100.10928    170.21575    620.67521            0    891.00025    -6455.362   -48.271156      16.5843      16.5843      16.5843            0            0            0    3301.9976   -1298.3761    252.44307    2252.7586    2719.2752    -2721.628 
  181000    4561.3294    290.02214    1423.5302     293.9303   -739.61383   -445.68352     -350.987   -74.717397    4899.2403   -1633.2203    99.826621    178.49655    615.28335            0    893.60652   -6457.7433   -48.271156      16.5843      16.5843      16.5843            0            0            0     1168.353   -195.19665    331.55297    4352.2301    535.57335   -617.21288 
  182000    4561.3294    289.64413   -92.862626    293.54721   -742.83488   -449.28767   -455.46511   -71.659048    4899.2431   -1627.5528    103.96351    160.54964    620.20479            0    884.71794   -6455.1369   -48.271156      16.5843      16.5843      16.5843            0            0            0   -3344.7303    3265.4607    4081.1274    3687.7499   -6276.0421    2309.7043 
  183000    4561.3294    317.66407   -1360.2816    321.94472   -769.61251   -447.66779   -538.15686   -59.411985    4857.5474   -1655.5202    101.36973    171.32269    613.21525            0    885.90766   -6453.6556   -48.271156      16.5843      16.5843      16.5843            0            0            0   -4102.7626    773.92782   -181.76483   -5582.1267     2667.819    -1166.537 
  184000    4561.3294    307.52947    2898.6277    311.67356   -753.57386   -441.90029   -249.07688   -67.161637    4886.2192   -1636.9011    88.684397     169.7008    624.94203            0    883.32723   -6455.9587   -48.271156      16.5843      16.5843      16.5843            0            0            0   -5352.1735   -260.78783   -3783.6381    5649.5963   -3259.8863    6306.1732 
  185000    4561.3294    302.23926   -2995.6457    306.31206   -763.05725   -456.74519   -656.02247   -76.453784    4877.8314   -1654.7791    112.96525    156.44709    622.30947            0    891.72181   -6456.1567   -48.271156      16.5843      16.5843      16.5843            0            0            0    3411.1486     3308.312   -1119.2134   -4132.2656   -3715.2263   -1139.4454 
  186000    4561.3294    297.13363    5077.3181    301.13763   -751.09973    -449.9621   -112.20717   -71.404413    4897.8637   -1629.6337    99.470227    169.08951    609.97424            0    878.53398    -6456.093   -48.271156      16.5843      16.5843      16.5843            0            0            0   -783.22623    2758.3624   -2097.3406    5077.1465    7545.7211    2609.0866 
  187000    4561.3294    313.54395    746.38581    317.76908   -755.35972   -437.59064   -387.93933   -76.452342    4892.0723   -1641.7304    101.75966    163.73359    620.87745            0     886.3707   -6457.3504   -48.271156      16.5843      16.5843      16.5843            0            0            0   -3825.6528    641.10914   -880.79041    262.20129    1968.5912    8.3649226 
  188000    4561.3294    298.89514    1957.8049    302.92288   -747.21642   -444.29354   -314.05584   -110.07867    4920.4379   -1645.3661    105.99719    159.98301    632.16951            0    898.14971   -6455.7254   -48.271156      16.5843      16.5843      16.5843            0            0            0   -2972.8796     2245.369    1081.8833    2013.8309    4575.3576   -715.77383 
  189000    4561.3294    303.26446     1540.189    307.35107   -750.18402   -442.83295   -340.37602   -98.246009    4903.8864   -1646.3664    105.26647    163.26086    627.65503            0    896.18236   -6452.0068   -48.271156      16.5843      16.5843      16.5843            0            0            0    1894.6923    1886.6245   -343.06686    4272.5245   -2462.7259    2810.7685 
  190000    4561.3294    290.26096    -1192.214    294.17235   -743.49589   -449.32354   -528.63237   -101.51284    4927.4454   -1629.8739    110.85896     146.9716    628.54745            0    886.37801   -6455.8065   -48.271156      16.5843      16.5843      16.5843            0            0            0   -1280.3026    1976.0766    1740.5717   -630.24044   -176.05147   -2770.3501 
  191000    4561.3294    286.18492   -5182.8142    290.04139   -761.37572   -471.33433   -816.10711   -99.098688    4923.5468   -1631.1078    107.80427    137.17077    624.75706            0     869.7321   -6455.5559   -48.271156      16.5843      16.5843      16.5843            0            0            0   -4083.1709    1330.2145    1300.4059   -3724.7738   -5223.5611   -6600.1078 
  192000    4561.3294    295.85065   -5073.8848    299.83737   -758.30785   -458.47048   -795.99702    -97.57769    4920.5131   -1633.0066    103.20501    148.66717    622.82662            0     874.6988    -6455.942   -48.271156      16.5843      16.5843      16.5843            0            0            0    1841.4089     1220.338    730.18001    -4650.625   -5894.3456   -4676.6836 
  193000    4561.3294    295.22105    541.59453    299.19927   -748.39591   -449.19663   -413.16851    -78.45866    4881.0344   -1651.2226    102.97777    172.27333    627.57557            0    902.82668   -6453.7983   -48.271156      16.5843      16.5843      16.5843            0            0            0   -3167.7866    308.97271   -1.7397374     1095.784    3703.1243   -3174.1248 
  194000    4561.3294    284.37265   -2652.9875    288.20469   -765.84954   -477.64486   -654.12771   -84.052708    4912.8421    -1623.833    97.867655    142.90197    617.21388            0     857.9835   -6452.6224   -48.271156      16.5843      16.5843      16.5843            0            0            0   -445.94923    784.08825     2396.641   -3347.8607   -3796.9676   -814.13404 
  195000    4561.3294    293.49019   -2704.5579    297.44509   -759.57696   -462.13187   -642.04531   -93.542977    4900.3518   -1647.1744    100.43648    170.22228    616.93868            0    887.59744   -6453.9832   -48.271156      16.5843      16.5843      16.5843            0            0            0   -4636.8129     3182.032    242.92944   -5302.7522   -1038.2293   -1772.6922 
  196000    4561.3294    290.25288    4457.6662    294.16416   -746.03894   -451.87478   -155.34053   -60.870293    4901.1193    -1612.397    97.429843    152.88347    616.04471            0    866.35802   -6452.6459   -48.271156      16.5843      16.5843      16.5843            0            0            0    3702.1603   -1418.9464   -200.42597     1920.093    7075.3064    4377.5991 
  197000    4561.3294    302.87595      2693.92    306.95733   -786.59001   -479.63268   -300.42689      -70.555    4901.0882   -1623.9747    73.377548    149.30101    614.70614            0     837.3847   -6454.5079   -48.271156      16.5843      16.5843      16.5843            0            0            0    -683.4955    509.74484    903.18886    4177.3912     1921.449      1982.92 
[...]
 9955000    4561.3294    290.50064   -2882.8966    294.41525   -751.33973   -456.92448   -648.70142   -99.425431    4897.3696   -1657.2205    114.46997    168.21918    623.19163            0    905.88078   -6455.1647   -48.271156      16.5843      16.5843      16.5843            0            0            0   -2727.8093    634.14323    -1873.185   -354.86254   -5895.8889   -2397.9384 
 9956000    4561.3294    295.52992   -2666.0995    299.51231    -753.9122   -454.39988   -631.75498   -89.177846    4912.1542   -1632.1662     101.0711    153.34863    623.83425            0    878.25398   -6455.1425   -48.271156      16.5843      16.5843      16.5843            0            0            0   -1867.7846   -3939.1204   -1565.3478   -7435.0889     2309.965   -2873.1745 
 9957000    4561.3294    303.78128    517.45303    307.87486   -768.72246   -460.84761   -426.42543   -68.644395    4885.3306   -1638.2833    95.278207    142.07547    632.20715            0    869.56082   -6454.9695   -48.271156      16.5843      16.5843      16.5843            0            0            0   -2033.2417   -1190.6221   -2078.9635   -1036.4682    6958.2908   -4369.4636 
 9958000    4561.3294    311.77014   -394.61522    315.97138   -760.83515   -444.86378   -471.11449   -90.683346    4880.4774   -1667.5142    103.83694    173.38569    629.45642            0    906.67904   -6457.3083   -48.271156      16.5843      16.5843      16.5843            0            0            0    1966.3887   -3555.3892    528.57061    1902.3837   -982.17924   -2104.0501 
 9959000    4561.3294    282.97565    830.23559    286.78886   -765.38379   -478.59493   -423.36574   -92.993693    4909.1938   -1638.9085    103.47246    141.72365    628.32861            0    873.52472   -6455.1086   -48.271156      16.5843      16.5843      16.5843            0            0            0    4161.0234   -89.953205   -485.33381    1845.9266   -632.17192    1276.9521 
 9960000    4561.3294    304.63283    1391.4513    308.73789   -745.59945   -436.86156     -344.299   -77.147691    4876.0023   -1660.5903    107.55431    185.52558    621.91093            0    914.99082   -6459.4449   -48.271156      16.5843      16.5843      16.5843            0            0            0    2223.8777    3322.1693   -3315.2997    4704.8603   -1239.7167     709.2104 
 9961000    4561.3294    279.92722     1108.649    283.69935    -765.5353   -481.83595   -408.08605   -89.807896     4901.156   -1642.0883    95.120313    157.96407    623.46865            0    876.55303   -6453.4364   -48.271156      16.5843      16.5843      16.5843            0            0            0   -1132.3075   -195.62673    -1068.848   -151.40172    1221.2073    2256.1415 
 9962000    4561.3294    286.74472   -146.89794    290.60873   -763.72596   -473.11723   -482.88922   -97.382119    4904.7381   -1650.7622    105.34023    157.63367    624.06236            0    887.03625   -6458.1182   -48.271156      16.5843      16.5843      16.5843            0            0            0    1373.0404   -1367.8301   -2742.0312   -855.84008    -2707.601    3122.7473 
 9963000    4561.3294    308.34436   -3504.5966    312.49943   -747.20576   -434.70634    -667.8402   -76.946932    4864.8523   -1663.0771    100.40312    192.32067    623.14754            0    915.87132   -6450.9824   -48.271156      16.5843      16.5843      16.5843            0            0            0    1864.9419   -3259.8048   -608.73483   -2907.6825     651.7218   -8257.8291 
 9964000    4561.3294    307.56414    183.68961    311.70869   -770.39982   -458.69112   -446.47167   -89.160813    4877.3168   -1671.1839    107.54872    167.64698    625.58836            0    900.78406   -6459.3399   -48.271156      16.5843      16.5843      16.5843            0            0            0   -3348.4693    763.48192    2326.0903   -420.61837    890.68521     81.00199 
 9965000    4561.3294    287.02522    795.26866      290.893   -720.74219   -429.84919   -376.94609   -87.550053    4911.3113   -1631.6966    121.82471    165.18023    623.94946            0    910.95441   -6455.4579   -48.271156      16.5843      16.5843      16.5843            0            0            0    -1579.793   -2899.9657    -4211.954    2172.4865   -835.65005    1048.9695 
 9966000    4561.3294    316.44578   -4166.7433    320.71002    -764.5302   -443.82018   -721.00157    -78.86965    4872.6439   -1660.7402    119.16393    163.22235    613.82369            0    896.20997   -6454.5144   -48.271156      16.5843      16.5843      16.5843            0            0            0   -1960.5113    116.46673    613.06058   -2244.9775   -3809.9575   -6445.2948 
 9967000    4561.3294    282.52841    407.70553     286.3356   -760.76515   -474.42956   -447.30804   -83.765828    4897.6404   -1641.7462    101.70813    152.36999    626.90294            0    880.98107   -6455.6208   -48.271156      16.5843      16.5843      16.5843            0            0            0   -2170.6544    1757.5012   -1022.4787   -268.82439     3088.209   -1596.2681 
 9968000    4561.3294    291.12984   -1292.5483    295.05293   -749.25199   -454.19906   -540.18236   -82.789866    4900.5784   -1639.7638     91.36397    167.18128    631.96653            0    890.51178   -6457.5523   -48.271156      16.5843      16.5843      16.5843            0            0            0   -235.87449    704.21879    4390.2355    1180.1479   -3874.0874   -1183.7055 
 9969000    4561.3294    280.28723    4113.2056    284.06421   -739.12392    -455.0597   -181.43976   -60.228752    4873.8649   -1643.9145    111.76018    167.86401    625.16642            0    904.79061   -6457.5507   -48.271156      16.5843      16.5843      16.5843            0            0            0     1367.352     601.9472   -1102.8396    4424.3259   -457.11165    8372.4026 
 9970000    4561.3294    298.44583    -3118.044    302.46751   -745.96661    -443.4991   -650.91859   -80.441097    4895.3881   -1642.1084    106.36472    171.14017    618.63691            0     896.1418   -6457.0555   -48.271156      16.5843      16.5843      16.5843            0            0            0   -6890.4486   -1152.8802   -1144.3788   -7118.8522    1531.0833   -3766.3633 
 9971000    4561.3294    284.46571    576.73629      288.299   -765.67509   -477.37608   -439.01025   -72.346339    4898.9702   -1630.0623    92.069997    148.05518    624.26205            0    864.38723   -6456.6862   -48.271156      16.5843      16.5843      16.5843            0            0            0   -2746.2881    3098.4994    3537.8092    151.99799    1849.2508    -271.0399 
 9972000    4561.3294    299.84474    726.96647    303.88527   -746.90984   -443.02457   -394.66508   -73.259639    4907.2182   -1623.9017    100.55375    152.48235    623.95577            0    876.99187   -6457.8603   -48.271156      16.5843      16.5843      16.5843            0            0            0    528.99391   -232.05043    731.73558    6603.0763     4034.978   -8457.1549 
 9973000    4561.3294    279.81402    302.82452    283.58463   -752.63457   -469.04994   -448.90535   -75.684295    4888.0827   -1645.4058    113.63087    156.69919    622.44115            0    892.77121   -6457.8042   -48.271156      16.5843      16.5843      16.5843            0            0            0   -393.41476    896.05418    2207.8569    3062.2393    -672.0555   -1481.7102 
 9974000    4561.3294    305.15271   -655.21701    309.26477   -738.86864   -429.60386   -473.19041    -76.04287    4906.7378   -1626.8503    91.719199    166.63222    629.63023            0    887.98165   -6457.5452   -48.271156      16.5843      16.5843      16.5843            0            0            0    2949.6731   -1890.3419    3267.2584   -284.54246   -3422.0205    1740.9119 
 9975000    4561.3294    295.99759    1411.3433    299.98628   -760.81267   -460.82639   -366.94057    -78.02413    4874.4839   -1662.4358    109.14435    174.31272    618.16607            0    901.62315   -6458.8956   -48.271156      16.5843      16.5843      16.5843            0            0            0   -45.538305    827.97905   -566.12749    -680.1285    5912.5111   -998.35275 
 9976000    4561.3294    298.70099    -1065.366    302.72611   -731.89168   -429.16557   -500.03618   -73.674779    4890.7606   -1640.4366    112.30474    170.30826    625.93196            0    908.54496   -6457.5224   -48.271156      16.5843      16.5843      16.5843            0            0            0    186.85206   -5848.8087   -1059.7763     1386.786   -1576.6937   -3006.1903 
 9977000    4561.3294    328.53582    3039.8526    332.96298   -767.87331   -434.91033   -232.69231    -89.85083    4907.5389   -1639.9153    97.048339    158.10638    616.88728            0      872.042   -6457.6033   -48.271156      16.5843      16.5843      16.5843            0            0            0    81.376385    387.64219    -1175.682    6077.8325    1832.7138    1209.0115 
 9978000    4561.3294    290.27471   -247.12597    294.18628   -755.30512   -461.11884   -477.55823   -78.736553    4887.2012   -1646.0955    113.72285    156.39796    620.66957            0    890.79038   -6454.5602   -48.271156      16.5843      16.5843      16.5843            0            0            0   -1534.6925    5892.5022    3156.3535    165.72486   -829.68492   -77.417857 
 9979000    4561.3294     305.7569    1378.0645     309.8771   -752.35914   -442.48204   -350.81001    -79.96698    4891.8629   -1646.2434    88.994399    188.20625    616.68359            0    893.88424   -6458.1393   -48.271156      16.5843      16.5843      16.5843            0            0            0   -368.21584    4782.4866    993.59146    771.13123    3808.5374   -445.47517 
 9980000    4561.3294    328.57709    -1007.958     333.0048   -755.51171   -422.50691   -489.55861   -98.933517    4928.7962   -1628.1195    92.827094    161.90074    617.87992            0    872.60775   -6457.9821   -48.271156      16.5843      16.5843      16.5843            0            0            0    -2354.928   -1023.6971    2246.1484    -1897.659    4125.2393   -5251.4542 
 9981000    4561.3294    290.31138   -749.23061    294.22345    -755.4692   -461.24574    -511.0863   -89.957421    4907.4035   -1638.5794    103.91748    159.22758    619.96517            0    883.11023   -6456.0255   -48.271156      16.5843      16.5843      16.5843            0            0            0   -2621.7667    2146.1692   -3671.5361   -2380.9682    12.833768    120.44257 
 9982000    4561.3294    295.07532    1243.9141    299.05158   -779.32298    -480.2714   -397.52335   -81.883693    4873.9866   -1661.8599    96.850601    159.41409    626.27225            0    882.53694   -6453.9628   -48.271156      16.5843      16.5843      16.5843            0            0            0   -5332.0306     497.3023   -4830.7688   -1512.2942   -497.97091    5742.0075 
 9983000    4561.3294    306.74562   -460.97928    310.87915   -755.99642   -445.11728   -475.78268    -66.30849    4870.3516   -1651.8166    113.78169    160.69545    621.34299            0    895.82013   -6455.8596   -48.271156      16.5843      16.5843      16.5843            0            0            0    2214.5166    236.51446   -2669.3542    -423.8231   -727.89727   -231.21746 
 9984000    4561.3294    286.52559   -1143.0078    290.38664   -756.99753   -466.61089   -542.64641   -71.347873    4879.8917   -1651.2363     100.5502    171.66662    622.02193            0    894.23875   -6459.7801   -48.271156      16.5843      16.5843      16.5843            0            0            0    1658.1438    562.82835   -4406.1713   -1477.1138   -1671.5937   -280.31581 
 9985000    4561.3294    296.49927   -3957.1969    300.49472   -747.57418   -447.07946   -710.32134   -95.620881     4887.722   -1663.3335    113.60234    178.31807    623.83895            0    915.75936   -6455.4347   -48.271156      16.5843      16.5843      16.5843            0            0            0     2610.164   -2568.4608    -1394.718   -2723.4819   -3414.9378    -5733.171 
 9986000    4561.3294    279.81318    1976.9108    283.58378   -771.28825   -487.70447   -356.19579   -89.716748    4900.6567   -1645.2648    91.597141     155.5101    626.86926            0    873.97651   -6456.2047   -48.271156      16.5843      16.5843      16.5843            0            0            0    3867.9616   -707.43723   -2102.1247   -427.60368    2269.2178    4089.1182 
 9987000    4561.3294    318.30617   -4609.3273    322.59548   -776.40691   -453.81143   -760.43453   -82.439612    4883.6776    -1657.909     107.8302    155.36686    618.30498            0    881.50204    -6459.147   -48.271156      16.5843      16.5843      16.5843            0            0            0    6093.8125    4060.9764    -1054.322   -4741.8416   -4516.4983   -4569.6421 
 9988000    4561.3294    278.39172    4572.6163    282.14316    -749.8511   -467.70794   -163.52694    -74.67022     4903.542   -1629.0222    107.21611    152.38773    619.56729            0    879.17113    -6457.894   -48.271156      16.5843      16.5843      16.5843            0            0            0   -2392.2018   -2301.0838    613.90936    6887.5447    5528.0385    1302.2658 
 9989000    4561.3294     280.4049   -2252.0586    284.18347   -779.76297    -495.5795   -645.39164   -105.28636    4909.4184   -1653.6514    94.216811    159.94943    619.72218            0    873.88843   -6457.7835   -48.271156      16.5843      16.5843      16.5843            0            0            0   -1643.8661     -257.087    3416.6386   -6650.5679    107.70122   -213.30895 
 9990000    4561.3294    285.95231   -106.81116    289.80564   -748.54672   -458.74108   -465.84641   -77.493339    4896.2346   -1636.7571    106.97119    162.78368    618.45556            0    888.21043   -6455.4984   -48.271156      16.5843      16.5843      16.5843            0            0            0   -983.37809    4660.5712    1303.6667    1496.8519    -1847.062    29.776651 
 9991000    4561.3294    306.75672     563.1819    310.89039   -771.92137   -461.03098   -423.56682   -96.685912    4893.0555   -1659.9926    105.40508    158.85239    623.81379            0    888.07126   -6456.3622   -48.271156      16.5843      16.5843      16.5843            0            0            0   -4769.7335   -235.44717   -1806.8237    -1671.463    4817.8641   -1456.8554 
 9992000    4561.3294    282.67016   -3461.4443    286.47926   -801.17966    -514.7004   -744.96367   -90.357098    4872.3896    -1676.124    103.85352     153.9756    617.11526            0    874.94438   -6458.1565   -48.271156      16.5843      16.5843      16.5843            0            0            0   -286.13841   -3248.2183    899.52082   -4433.3734   -5949.2411    -1.718262 
 9993000    4561.3294    304.54291   -1402.0334    308.64675   -763.67106    -455.0243    -548.2908    -87.51154    4892.5532    -1656.485    109.31618    162.65558    620.84221            0    892.81396   -6461.5267   -48.271156      16.5843      16.5843      16.5843            0            0            0   -255.78408    3797.3275    2218.6502   -996.70787   -2170.3252   -1039.0671 
 9994000    4561.3294    288.15978    4575.0113    292.04285   -765.94924   -473.90639   -169.56606   -85.496881     4896.182   -1644.9439    100.60812    156.21905    622.16748            0    878.99465    -6455.629   -48.271156      16.5843      16.5843      16.5843            0            0            0     2233.608   -2407.1946   -1465.1493    5052.7319    7736.3776    935.92456 
 9995000    4561.3294     293.5504     24.81843    297.50612   -761.92708   -464.42096   -462.76998   -92.397633    4919.0406   -1632.3333    99.766247    143.63461    627.00541            0    870.40627   -6458.9764   -48.271156      16.5843      16.5843      16.5843            0            0            0    557.73155    4582.5125    2437.2371   -1410.3176    349.21461    1135.5583 
 9996000    4561.3294    307.92937    1184.8758    312.07885   -740.43929   -428.36044   -349.53977    -74.48414    4904.1173   -1622.5355    102.39042      156.864    622.84183            0    882.09624   -6452.1687   -48.271156      16.5843      16.5843      16.5843            0            0            0    1009.7427   -2358.7877   -4621.3852    1911.0773   -147.67448    1791.2247 
 9997000    4561.3294    297.71747   -1840.3677    301.72933   -759.34966   -457.62033   -580.04584   -89.145925    4897.1132   -1650.2844    106.92941    162.64075    621.36459            0    890.93474   -6458.2517   -48.271156      16.5843      16.5843      16.5843            0            0            0    552.02235   -910.27838   -960.86409   -571.34997   -5439.5343    489.78118 
 9998000    4561.3294    309.55778   -2963.9563     313.7292   -726.08587   -412.35667   -609.52589   -84.869005    4914.5066   -1626.8098    117.74944    157.25563    625.71885            0    900.72393   -6456.4474   -48.271156      16.5843      16.5843      16.5843            0            0            0   -271.89391    -3467.286    1387.9228   -3447.3773    1036.2853   -6480.7769 
 9999000    4561.3294     307.6017    1651.3141    311.74676    -781.4318   -469.68503    -359.8358   -89.310494    4924.5892   -1623.4452    85.721427    136.89351    619.39848            0    842.01342    -6458.724   -48.271156      16.5843      16.5843      16.5843            0            0            0    2371.8631    2454.5837   -2758.5799   -4343.5842     3363.633    5933.8936 
10000000    4561.3294    287.57614   -6799.2274    291.45135    -742.0117   -450.56035   -902.86067   -104.93721    4924.1085   -1638.0231    99.568443    167.00045    629.44248            0    896.01137   -6457.1944   -48.271156      16.5843      16.5843      16.5843            0            0            0    1132.4787   -1789.0097   -1758.7474   -13629.689   -3534.1979   -3233.7955 
Loop time of 5670.58 on 4 procs for 10000000 steps with 341 atoms

Performance: 152.365 ns/day, 0.158 hours/ns, 1763.487 timesteps/s
92.6% CPU use with 4 MPI tasks x 1 OpenMP threads

MPI task timing breakdown:
Section |  min time  |  avg time  |  max time  |%varavg| %total
---------------------------------------------------------------
Pair    | 1516.3     | 1689.5     | 1876.6     | 310.8 | 29.79
Bond    | 173.27     | 182.15     | 191.55     |  61.2 |  3.21
Kspace  | 2565.2     | 2741.2     | 2930.9     | 247.4 | 48.34
Neigh   | 162.55     | 163.17     | 163.87     |   4.6 |  2.88
Comm    | 751.29     | 759.64     | 766.01     |  19.6 | 13.40
Output  | 3.5329     | 3.588      | 3.7504     |   4.9 |  0.06
Modify  | 44.739     | 47.241     | 49.514     |  31.3 |  0.83
Other   |            | 84.06      |            |       |  1.48

Nlocal:    85.25 ave 95 max 77 min
Histogram: 1 0 1 0 0 1 0 0 0 1
Nghost:    1691.75 ave 1742 max 1652 min
Histogram: 1 1 0 0 0 0 1 0 0 1
Neighs:    9673 ave 10583 max 8868 min
Histogram: 2 0 0 0 0 0 0 1 0 1

Total # of neighbors = 38692
Ave neighs/atom = 113.466
Ave special neighs/atom = 5.85924
Neighbor list builds = 335997
Dangerous builds = 0


write_restart   restart.${NAME}
write_restart   restart.mol
PPPM initialization ...
  using 12-bit tables for long-range coulomb (src/kspace.cpp:332)
  G vector (1/distance) = 0.374366
  grid = 12 12 12
  stencil order = 5
  estimated absolute RMS force accuracy = 0.0274815
  estimated relative force accuracy = 8.27598e-05
  using double precision KISS FFT
  3d grid and FFT values/proc = 3211 432
write_data	data.*
PPPM initialization ...
  using 12-bit tables for long-range coulomb (src/kspace.cpp:332)
  G vector (1/distance) = 0.374366
  grid = 12 12 12
  stencil order = 5
  estimated absolute RMS force accuracy = 0.0274815
  estimated relative force accuracy = 8.27598e-05
  using double precision KISS FFT
  3d grid and FFT values/proc = 3211 432
Total wall time: 1:34:31
