LAMMPS data file via write_data, version 3 Mar 2020, timestep = 10000000

341 atoms
8 atom types
274 bonds
5 bond types
389 angles
8 angle types
420 dihedrals
6 dihedral types

0.0000000000000000e+00 1.6584299999999999e+01 xlo xhi
0.0000000000000000e+00 1.6584299999999999e+01 ylo yhi
0.0000000000000000e+00 1.6584299999999999e+01 zlo zhi

Masses

1 6.941
2 16
3 19
4 12.01
5 32.06
6 14.01
7 16
8 1.008

Pair Coeffs # lj/cut/coul/long

1 0.0182661 2.126
2 0.209859 2.96
3 0.0609584 3.118
4 0.109326 3.4
5 0.249833 3.564
6 0.169886 3.25
7 0.155323 3.165
8 0 0

Bond Coeffs # harmonic

1 492.67 1.466
2 363.556 1.344
3 248.733 1.782
4 256.929 1.752
5 529.23 1.012

Angle Coeffs # harmonic

1 41.2526 108.48
2 45.27 121.88
3 43.0716 107.06
4 81.1647 109.67
5 71.2115 107.16
6 39.3938 103.12
7 109.646 119.18
8 37.9249 113.24

Dihedral Coeffs # charmm

1 0.143897 3 0 0
2 0.143897 3 0 0
3 0.499666 3 180 0
4 6.79545 1 180 0
5 0.499666 3 180 0
6 6.79545 1 180 0

Atoms # full

223 28 4 3.1900000000000001e-01 3.1774622457155219e+00 5.2023944780533107e+00 2.8990751134906318e+00 0 0 0
219 28 5 9.1100000000000003e-01 4.0203005591063494e+00 3.8955506997764853e+00 3.9039105582898253e+00 0 0 0
217 28 2 -4.6100000000000002e-01 3.2175874280932177e+00 2.6797334976108997e+00 3.9053371627494178e+00 0 0 0
222 28 3 -1.3800000000000001e-01 2.8724191134087480e+00 4.6850702699971487e+00 1.7289817694465446e+00 0 0 0
220 28 2 -4.6100000000000002e-01 4.6584999477439180e+00 4.3264585173981063e+00 5.1247045866625829e+00 0 0 0
216 28 6 -5.8799999999999997e-01 5.1357533481858244e+00 3.0160336273624813e+00 2.9314023788130936e+00 0 0 0
226 29 8 4.0999999999999998e-01 1.5682831756116076e+00 6.3597771875007263e+00 6.2096555588099180e+00 0 1 1
225 29 7 -8.1999999999999995e-01 7.5285764522837195e-01 6.7132921384047135e+00 5.6501568084953711e+00 0 1 1
221 28 3 -1.3800000000000001e-01 2.0970539998422146e+00 5.6949163124821602e+00 3.4657287603093341e+00 0 0 0
187 26 2 -4.6100000000000002e-01 4.8850075386618617e+00 7.7864178529011383e+00 4.9602480412676622e+00 0 0 0
227 29 8 4.0999999999999998e-01 9.8221986922908588e-01 7.4133986626358777e+00 4.8965731983869230e+00 0 1 1
135 23 2 -4.6100000000000002e-01 2.5380176460529231e+00 5.2323713228698523e+00 7.3808837723579455e+00 0 0 -1
339 67 7 -8.1999999999999995e-01 4.1420202651966171e+00 1.0143028114536861e+00 6.2554583039648506e+00 0 1 -1
184 26 2 -4.6100000000000002e-01 4.7366275692179611e+00 7.4600383191235231e+00 7.7882782479969510e+00 0 0 0
340 67 8 4.0999999999999998e-01 4.2900291135996547e+00 1.9042989761271849e+00 5.8230133666977029e+00 0 1 -1
239 33 8 4.0999999999999998e-01 2.9891025702238521e+00 7.5208070159951956e-01 5.4636815799336325e-01 1 1 0
224 28 3 -1.3800000000000001e-01 3.9413999752738968e+00 6.2785043319742933e+00 2.6736871705784893e+00 0 0 0
8 8 1 8.0000000000000004e-01 5.0727777815695498e+00 5.8614151115950595e+00 6.4693398977438434e+00 -1 -1 -1
238 33 8 4.0999999999999998e-01 3.7868647392073860e+00 2.1201776718176646e+00 1.1394264042729720e+00 1 1 0
237 33 7 -8.1999999999999995e-01 3.8549086593214064e+00 1.2666420626173387e+00 5.3984903673999529e-01 1 1 0
299 53 8 4.0999999999999998e-01 7.2619727729156214e-01 3.2126756742574285e+00 6.8559627210292744e+00 -1 -1 -3
262 41 8 4.0999999999999998e-01 1.9936907798990688e+00 2.0414087201959896e+00 4.7246845270567492e+00 -1 -1 0
141 23 6 -5.8799999999999997e-01 4.8266490572642979e+00 4.3978393539020928e+00 8.0138953682958185e+00 0 0 -1
241 34 8 4.0999999999999998e-01 5.0470353699080022e+00 7.8615003141845108e-02 3.2078859098689966e-01 -1 1 0
50 17 3 -1.3800000000000001e-01 5.2858649204612620e+00 7.4456364698108883e+00 2.8764887631368746e-01 0 -1 0
195 27 2 -4.6100000000000002e-01 1.5183609422653854e-01 3.6185227914412721e+00 9.7121873746944021e-01 0 0 0
245 35 8 4.0999999999999998e-01 5.7977747054909906e-02 2.9602746023772677e+00 4.2586353395268954e+00 -1 -1 1
10 10 1 8.0000000000000004e-01 3.4908731676547791e+00 8.5235076894363571e-01 8.2554226460866200e+00 0 0 -1
263 41 8 4.0999999999999998e-01 1.0624272126594985e+00 8.9935040882897377e-01 5.5499950862272005e+00 -1 -1 0
261 41 7 -8.1999999999999995e-01 1.1276273546843716e+00 1.8679243432181278e+00 5.2475720156085517e+00 -1 -1 0
151 24 3 -1.3800000000000001e-01 6.5930107839060925e-01 8.0564235200214789e+00 2.3650506366689990e+00 0 0 0
341 67 8 4.0999999999999998e-01 4.4681972672152499e+00 2.1365213450807000e-01 5.6374800057835932e+00 0 1 -1
331 64 8 4.0999999999999998e-01 6.7924693701336025e-02 5.7260619315576760e+00 8.2544002080641299e+00 -1 0 -1
280 47 8 4.0999999999999998e-01 1.0199019167523407e+01 6.8020768724511198e+00 6.8799692509517003e+00 -2 -1 -1
250 37 8 4.0999999999999998e-01 7.3661126220030404e+00 6.4910679235765487e+00 5.5312811581481762e+00 0 0 0
251 37 8 4.0999999999999998e-01 7.6085737217590728e+00 4.8592595564978280e+00 6.2599020323431915e+00 0 0 0
236 32 8 4.0999999999999998e-01 7.9350322944810561e+00 7.6382880527381714e+00 3.4109494929713251e+00 -1 -2 1
234 32 7 -8.1999999999999995e-01 8.4385162510958427e+00 6.9975627834152521e+00 4.0577087322076917e+00 -1 -2 1
215 28 3 -1.3800000000000001e-01 7.6378752318377430e+00 2.8471621227534918e+00 8.4696611939146127e-01 0 0 0
211 28 3 -1.3800000000000001e-01 8.8971252564830827e+00 1.8589826715517501e+00 2.3555550777149974e+00 0 0 0
213 28 5 9.1100000000000003e-01 6.7999291183183521e+00 3.0184912390337906e+00 3.3411582833864291e+00 0 0 0
214 28 2 -4.6100000000000002e-01 7.0893198058558378e+00 2.1825911490270271e+00 4.5304861472829856e+00 0 0 0
212 28 4 3.1900000000000001e-01 7.6024883108725847e+00 2.1285699341163551e+00 2.0086673684164897e+00 0 0 0
7 7 1 8.0000000000000004e-01 7.7693589842784956e+00 1.1458195498837107e+00 6.4360134203961925e+00 0 1 -1
210 28 2 -4.6100000000000002e-01 7.2922839081509014e+00 4.4062930507202998e+00 3.5092049708026498e+00 0 0 0
175 25 2 -4.6100000000000002e-01 9.4906393862725089e+00 2.4322013409352512e+00 6.2827109804284094e+00 -1 -1 0
249 37 7 -8.1999999999999995e-01 7.1360290087941074e+00 5.7902172686766962e+00 6.2670760622290524e+00 0 0 0
235 32 8 4.0999999999999998e-01 8.2681934268128128e+00 6.0104128113214959e+00 3.7913288612022047e+00 -1 -2 1
218 28 3 -1.3800000000000001e-01 7.0117523068679839e+00 9.3701545371581585e-01 1.7697661668946394e+00 0 0 0
172 25 2 -4.6100000000000002e-01 1.0370098551645487e+01 4.7270151781609240e+00 6.7201447232682900e+00 -1 -1 0
174 25 5 9.1100000000000003e-01 1.0638880889550810e+01 3.3553202713338179e+00 6.2546852368058241e+00 -1 -1 0
166 25 3 -1.3800000000000001e-01 1.0395730108312899e+01 5.6514210064343002e+00 2.1943854801130307e+00 -1 -1 0
294 52 7 -8.1999999999999995e-01 7.6742909338146053e+00 4.4074825461693945e-02 8.1653522210768230e+00 0 -1 0
279 47 7 -8.1999999999999995e-01 1.0020645877055138e+01 7.8083127693046208e+00 6.8761468467892373e+00 -2 -1 -1
145 23 2 -4.6100000000000002e-01 6.4263159337605211e+00 2.8844896458074625e+00 7.0985554835045521e+00 0 0 -1
1 1 1 8.0000000000000004e-01 1.0355449455011488e+01 8.0254166440923367e+00 4.5025353720834227e+00 -1 -1 0
53 17 3 -1.3800000000000001e-01 7.2236130682725053e+00 6.3802264310697643e+00 1.7717958357962987e-01 0 -1 0
281 47 8 4.0999999999999998e-01 9.5583419882038889e+00 8.0587907522767477e+00 7.7520869975724374e+00 -2 -1 -1
298 53 8 4.0999999999999998e-01 1.5988147256139326e+01 3.3145465464941992e+00 7.7488231543735457e+00 -2 -1 -3
337 66 8 4.0999999999999998e-01 1.2608734573951976e+01 6.4726622908533515e-01 4.7221008933103379e+00 -1 -1 0
336 66 7 -8.1999999999999995e-01 1.2713129704800135e+01 2.7417394007745993e-01 3.7459949887456108e+00 -1 -1 0
338 66 8 4.0999999999999998e-01 1.3360553402616809e+01 7.5891158987903906e-01 3.1358535615508494e+00 -1 -1 0
26 15 3 -1.3800000000000001e-01 1.5256894498975310e+01 5.0047515389982644e-01 6.9032812769342744e+00 -1 0 -1
171 25 6 -5.8799999999999997e-01 1.1238647120272942e+01 3.5168970158493331e+00 4.5987933816968578e+00 -1 -1 0
167 25 4 3.1900000000000001e-01 1.1608699136929401e+01 5.1456080556315573e+00 2.3006607910927874e+00 -1 -1 0
170 25 3 -1.3800000000000001e-01 1.1554110906843643e+01 3.9413029456550359e+00 1.7161930867337858e+00 -1 -1 0
178 25 4 3.1900000000000001e-01 1.2019077585586738e+01 2.6627283867847797e+00 7.1799310867050936e+00 -1 -1 0
179 25 3 -1.3800000000000001e-01 1.2493735582285252e+01 1.4583371700732910e+00 6.6722574259467580e+00 -1 -1 0
327 63 7 -8.1999999999999995e-01 1.4195229183476592e+01 2.4669277777802754e+00 2.6299109402175667e+00 0 -1 0
244 35 8 4.0999999999999998e-01 1.6350217505371226e+01 3.8237265166076240e+00 2.8759601966524047e+00 -2 -1 1
168 25 5 9.1100000000000003e-01 1.2008210188198495e+01 4.9932918681878444e+00 4.0623075076902317e+00 -1 -1 0
243 35 7 -8.1999999999999995e-01 1.6339465669742729e+01 3.8664459479316169e+00 3.9014782485723738e+00 -2 -1 1
11 11 1 8.0000000000000004e-01 1.6026793650537766e+01 5.1494480670184251e+00 5.6104526017331295e+00 -1 -2 0
329 63 8 4.0999999999999998e-01 1.4249269443085392e+01 2.6465125251388368e+00 1.6287511635182828e+00 0 -1 0
297 53 7 -8.1999999999999995e-01 1.6567702663972579e+01 3.8534069375684701e+00 7.1838004720583983e+00 -2 -1 -3
152 24 4 3.1900000000000001e-01 1.5916201362778260e+01 7.7863726423646984e+00 2.2395194840930732e+00 -1 0 0
155 24 3 -1.3800000000000001e-01 1.5682768314957784e+01 7.0235273680863299e+00 1.1641135619172591e+00 -1 0 0
328 63 8 4.0999999999999998e-01 1.4362478152067581e+01 3.2410754434803715e+00 3.2552666062273383e+00 0 -1 0
255 39 7 -8.1999999999999995e-01 1.4301711295837134e+01 6.6144087330448773e+00 6.5717602179635355e+00 0 0 0
177 25 3 -1.3800000000000001e-01 1.3042403908639900e+01 3.5442729286567372e+00 7.2730253171191519e+00 -1 -1 0
173 25 3 -1.3800000000000001e-01 1.2463806786085526e+01 5.8753905710418914e+00 1.6398952513874574e+00 -1 -1 0
257 39 8 4.0999999999999998e-01 1.3571482099717642e+01 6.2291540009616408e+00 5.9398205205043402e+00 0 0 0
158 24 3 -1.3800000000000001e-01 1.5411530511103415e+01 7.0894880046803825e+00 3.2660365452360707e+00 -1 0 0
165 25 2 -4.6100000000000002e-01 1.1384242238884497e+01 6.1645927998558463e+00 4.7003417051223160e+00 -1 -1 0
169 25 2 -4.6100000000000002e-01 1.3426493412779593e+01 4.7456737075741060e+00 4.3917007063955662e+00 -1 -1 0
256 39 8 4.0999999999999998e-01 1.4060532726256431e+01 6.3818982024005155e+00 7.5108167806661035e+00 0 0 0
14 14 1 8.0000000000000004e-01 1.6093353561354132e+01 8.0838772024626042e+00 7.0267851941617616e+00 -1 0 0
202 27 2 -4.6100000000000002e-01 2.7692391348021754e+00 2.7841020507384990e+00 1.3407070121429399e+01 0 0 -1
137 23 4 3.1900000000000001e-01 2.8060804348562494e+00 4.7447352296617087e+00 1.0052070734661934e+01 0 0 -1
136 23 3 -1.3800000000000001e-01 1.4841749615738506e+00 4.6705058618229058e+00 1.0325199651306592e+01 0 0 -1
143 23 3 -1.3800000000000001e-01 3.5947093236595955e+00 4.0721818377631500e+00 1.0923343682992037e+01 0 0 -1
140 23 3 -1.3800000000000001e-01 2.9978002246656752e+00 6.0925150222089837e+00 1.0237047228157435e+01 0 0 -1
208 27 4 3.1900000000000001e-01 3.6505698286594845e+00 4.7934167681179947e+00 1.5091146934079497e+01 0 0 -1
206 27 3 -1.3800000000000001e-01 4.6452146779308929e+00 5.2445862285359857e+00 1.4280081660478837e+01 0 0 -1
204 27 5 9.1100000000000003e-01 2.2965879558321309e+00 4.0133700856802923e+00 1.4076249421334868e+01 0 0 -1
209 27 3 -1.3800000000000001e-01 3.2243705838902632e+00 5.9536094022724040e+00 1.5662956175537827e+01 0 0 -1
207 27 3 -1.3800000000000001e-01 4.1702946121301858e+00 3.9777482801578348e+00 1.5989860534434346e+01 0 0 -1
15 15 2 -4.6100000000000002e-01 5.8231517163409507e-01 1.2975131086364629e+00 1.1407457873017886e+01 0 0 -1
326 62 8 4.0999999999999998e-01 3.5825356823315953e+00 9.2211532093905391e-01 1.5183558315571762e+01 -1 0 -2
12 12 1 8.0000000000000004e-01 1.9569298585616999e+00 6.9054152927641410e-01 1.3253513381291551e+01 0 0 -1
205 27 2 -4.6100000000000002e-01 1.3785323015871649e+00 4.8980425398807288e+00 1.3357159801678948e+01 0 0 -1
201 27 6 -5.8799999999999997e-01 1.3975739248294938e+00 3.2515249682635066e+00 1.5346308180184872e+01 0 0 -1
325 62 8 4.0999999999999998e-01 4.4087891933065668e+00 9.3341992839425669e-01 1.3765625625336099e+01 -1 0 -2
142 23 2 -4.6100000000000002e-01 5.1467624128160363e+00 2.0029996881214998e+00 9.0245852595974121e+00 0 0 -1
199 27 2 -4.6100000000000002e-01 2.6874155386439003e-01 5.4332828790092673e+00 1.5834200887738398e+01 0 0 -1
275 45 8 4.0999999999999998e-01 6.0062210245975844e-01 5.9541580367209441e+00 1.2330482700277676e+01 0 0 -1
198 27 5 9.1100000000000003e-01 5.9944580367023576e-02 3.9767055267117621e+00 1.6097924081227578e+01 0 0 -1
269 43 8 4.0999999999999998e-01 1.2668857989363234e+00 7.8898090948208113e+00 1.0945976187874054e+01 0 0 0
324 62 7 -8.1999999999999995e-01 3.8745919505731048e+00 3.7059673254354220e-01 1.4388499735045748e+01 -1 0 -2
44 16 3 -1.3800000000000001e-01 1.5586448977208085e+00 7.7521915564206658e+00 1.4017990782914865e+01 0 -1 -1
138 23 5 9.1100000000000003e-01 3.0764930124679677e+00 4.2854405710882899e+00 8.3992677384957162e+00 0 0 -1
268 43 8 4.0999999999999998e-01 1.2357105898218810e+00 7.8241053453718798e+00 9.3585741553988822e+00 0 0 0
139 23 2 -4.6100000000000002e-01 2.7550073541548814e+00 2.8741093624394951e+00 8.3258063170767951e+00 0 0 -1
47 17 4 3.1900000000000001e-01 6.6039507908901234e+00 7.5689888819366553e+00 1.6490890209857014e+01 0 -1 -1
58 17 4 3.1900000000000001e-01 1.0433503076676276e+01 8.1118355614641331e+00 1.4632493952836255e+01 0 -1 -1
289 50 8 4.0999999999999998e-01 6.5489546406366097e+00 5.8410057546324966e-02 1.1301776112952513e+01 -1 0 -1
87 19 3 -1.3800000000000001e-01 6.2710418278586237e+00 7.8638070309387853e+00 1.0669196454922730e+01 -1 -1 -1
89 19 3 -1.3800000000000001e-01 5.7927526169755632e+00 7.0864873881918893e+00 1.2581118328483093e+01 -1 -1 -1
46 17 3 -1.3800000000000001e-01 6.6818393837039878e+00 7.6546548031922050e+00 1.5192455514639457e+01 0 -1 -1
115 21 2 -4.6100000000000002e-01 7.6747257529643997e+00 9.2104267553835062e-01 1.4834062016438955e+01 -1 0 0
119 21 3 -1.3800000000000001e-01 8.4999009728698063e+00 3.9215334426861657e+00 1.2800321487490997e+01 -1 0 0
117 21 3 -1.3800000000000001e-01 7.3304584576065084e+00 4.3327937857153405e+00 1.4550123521279112e+01 -1 0 0
147 23 3 -1.3800000000000001e-01 8.0031013236906734e+00 3.0152028379274687e+00 9.9856547427187490e+00 0 0 -1
149 23 3 -1.3800000000000001e-01 6.3908308450724807e+00 4.3377524894396737e+00 1.0743965263670672e+01 0 0 -1
118 21 4 3.1900000000000001e-01 8.1795034791738832e+00 3.3577221060248470e+00 1.3967052552818608e+01 -1 0 0
116 21 3 -1.3800000000000001e-01 9.2960750593889419e+00 3.2266161492534504e+00 1.4725056667433748e+01 -1 0 0
148 23 4 3.1900000000000001e-01 7.0326251591071225e+00 3.8910023876620756e+00 9.6409252305694135e+00 0 0 -1
146 23 3 -1.3800000000000001e-01 7.6943025216121601e+00 4.8612273513445077e+00 9.0381940011563593e+00 0 0 -1
114 21 5 9.1100000000000003e-01 7.3750938025153001e+00 1.7735838494414919e+00 1.3720652716391031e+01 -1 0 0
112 21 2 -4.6100000000000002e-01 5.8993568224610646e+00 1.8762098994385250e+00 1.3460358146677294e+01 -1 0 0
57 17 3 -1.3800000000000001e-01 9.5698558200773309e+00 7.0323898010028874e+00 1.4756460542630274e+01 0 -1 -1
68 18 3 -1.3800000000000001e-01 1.0968739536530432e+01 5.5243005143098651e+00 1.2319928213244765e+01 -1 0 -1
111 21 6 -5.8799999999999997e-01 7.9926295613459439e+00 9.8530238487628374e-01 1.2263868976628157e+01 -1 0 0
61 18 3 -1.3800000000000001e-01 1.0936520975038459e+01 5.0115260841941893e+00 1.0137494492260121e+01 -1 0 -1
144 23 5 9.1100000000000003e-01 5.9221740241382808e+00 3.1120808637892505e+00 8.4315589123279384e+00 0 0 -1
65 18 3 -1.3800000000000001e-01 1.0410784766439811e+01 7.0445963011441703e+00 1.0912481276936907e+01 -1 0 -1
110 21 3 -1.3800000000000001e-01 1.0800463056138025e+01 7.6426242274495892e-01 1.0370282551492878e+01 -1 0 0
86 19 3 -1.3800000000000001e-01 7.6702586969261377e+00 8.1224174875747419e+00 1.2338187066164396e+01 -1 -1 -1
88 19 4 3.1900000000000001e-01 6.3590018069779468e+00 8.1249487676459395e+00 1.1980108277180040e+01 -1 -1 -1
105 21 2 -4.6100000000000002e-01 1.0156947883135100e+01 5.4007079316518003e-01 1.3551532095174769e+01 -1 0 0
295 52 8 4.0999999999999998e-01 7.0700004016447293e+00 1.1864249705436691e-01 9.0107057333331468e+00 0 -1 0
59 17 3 -1.3800000000000001e-01 1.1626504845745409e+01 7.7298138778714378e+00 1.5098199403690931e+01 0 -1 -1
18 15 5 9.1100000000000003e-01 1.6142617546481208e+01 1.1070040685433862e+00 1.0386942374276652e+01 -1 0 -1
20 15 3 -1.3800000000000001e-01 1.4577024442586822e+01 3.2927211114496407e-01 1.2286899790549034e+01 -1 0 -1
283 48 8 4.0999999999999998e-01 1.2683863188518950e+01 5.8129627873738599e-01 1.5454171282574716e+01 -1 0 -1
66 18 6 -5.8799999999999997e-01 1.3208861667581361e+01 7.2322889991070740e+00 9.5297347473407790e+00 -1 0 -1
273 45 7 -8.1999999999999995e-01 1.6421687125468797e+01 6.4141432088031713e+00 1.1814170461781199e+01 -1 0 -1
16 15 3 -1.3800000000000001e-01 1.3762473610672931e+01 2.1319507725508382e+00 1.1060995231937175e+01 -1 0 -1
293 51 8 4.0999999999999998e-01 1.4438614129553669e+01 7.3996392293001083e+00 1.4910074124813187e+01 -2 -1 0
2 2 1 8.0000000000000004e-01 1.5598912385037508e+01 8.1709291698260813e+00 1.2611247430455926e+01 -1 -1 -1
292 51 8 4.0999999999999998e-01 1.5867455542010950e+01 6.3121083994850382e+00 1.4927467577227192e+01 -2 -1 0
60 18 2 -4.6100000000000002e-01 1.3973744538000435e+01 5.4141327605255798e+00 1.1004341829365323e+01 -1 0 -1
332 64 8 4.0999999999999998e-01 1.5917807235886164e+01 6.6931802003950587e+00 9.4341070941698302e+00 -2 0 -1
62 18 4 3.1900000000000001e-01 1.1224481306294106e+01 5.9874674707786912e+00 1.1093949153618762e+01 -1 0 -1
200 27 3 -1.3800000000000001e-01 1.4966074977535117e+01 3.7451508695189673e+00 1.4059066377303107e+01 -1 0 -1
291 51 7 -8.1999999999999995e-01 1.5196846128871989e+01 6.9196581584616812e+00 1.4404190227505081e+01 -2 -1 0
19 15 2 -4.6100000000000002e-01 1.6084239896425856e+01 2.0290313188745310e+00 9.2062400668296043e+00 -1 0 -1
203 27 3 -1.3800000000000001e-01 1.3994168524080372e+01 4.2190042504025618e+00 1.5915943604109867e+01 -1 0 -1
64 18 2 -4.6100000000000002e-01 1.3262539069396338e+01 7.5884341416145418e+00 1.2005384073963034e+01 -1 0 -1
330 64 7 -8.1999999999999995e-01 1.6489147179221074e+01 6.6948375649746534e+00 8.5683755515484954e+00 -2 0 -1
63 18 5 9.1100000000000003e-01 1.2973106518871129e+01 6.4681967726228624e+00 1.1070113595706021e+01 -1 0 -1
196 27 3 -1.3800000000000001e-01 1.4737314613146019e+01 2.3322508255723120e+00 1.5608003517800375e+01 -1 0 -1
197 27 4 3.1900000000000001e-01 1.5056835736827066e+01 3.5655028361245904e+00 1.5383018244052110e+01 -1 0 -1
17 15 4 3.1900000000000001e-01 1.4487820444596673e+01 9.4444498674546085e-01 1.1036128873054322e+01 -1 0 -1
23 15 3 -1.3800000000000001e-01 1.3805946071936422e+01 7.0328536690659194e-02 1.0289076795698179e+01 -1 0 -1
274 45 8 4.0999999999999998e-01 1.5565189334647227e+01 5.8893520233537044e+00 1.2059504427161865e+01 -1 0 -1
176 25 3 -1.3800000000000001e-01 1.1681500422158930e+01 2.4246336195111438e+00 8.4302813103687697e+00 -1 -1 0
284 48 8 4.0999999999999998e-01 1.1068113022461505e+01 1.3041214152457803e-01 1.4995723300337772e+01 -1 0 -1
282 48 7 -8.1999999999999995e-01 1.1819625767755392e+01 5.1551619896947898e-02 1.5702469365794405e+01 -1 0 -1
93 20 5 9.1100000000000003e-01 1.9709071108220821e+00 1.4372932782327984e+01 1.5006326665467598e+00 0 -1 0
192 26 3 -1.3800000000000001e-01 3.5095094301009682e+00 1.1137105294787293e+01 3.6220755229488608e+00 0 0 0
186 26 6 -5.8799999999999997e-01 3.9112321815768469e+00 9.5505953886862329e+00 6.5006030968428155e+00 0 0 0
193 26 4 3.1900000000000001e-01 4.4810120726065730e+00 1.0144873152607087e+01 3.7200444057587903e+00 0 0 0
94 20 2 -4.6100000000000002e-01 3.2590676665674887e+00 1.4187718635506863e+01 8.7392839588964955e-01 0 -1 0
183 26 5 9.1100000000000003e-01 4.8874889135664548e+00 8.8915411332052621e+00 7.8644644434895854e+00 0 0 0
95 20 3 -1.3800000000000001e-01 2.2185727023718007e+00 1.4126769606870418e+01 4.0958568849565893e+00 0 -1 0
92 20 4 3.1900000000000001e-01 1.9742841469352757e+00 1.5050376796543498e+01 3.1450406559555333e+00 0 -1 0
252 38 7 -8.1999999999999995e-01 1.9750641653474683e+00 1.0655132477644537e+01 1.2799840889665841e+00 0 -1 -1
194 26 3 -1.3800000000000001e-01 4.5393792591221320e+00 9.5218025461384155e+00 2.5095015368650202e+00 0 0 0
96 20 6 -5.8799999999999997e-01 1.3045916485624522e+00 1.5697243012321971e+01 5.7291144225317769e-01 0 -1 0
253 38 8 4.0999999999999998e-01 1.7368154382522820e+00 1.0976578599267002e+01 2.2491024769937211e+00 0 -1 -1
242 34 8 4.0999999999999998e-01 5.2051217480497689e+00 1.5283860588694585e+01 1.0729968756834070e+00 -1 0 0
189 26 5 9.1100000000000003e-01 3.8953620252142791e+00 8.8644196266030235e+00 4.9154220624887515e+00 0 0 0
302 54 8 4.0999999999999998e-01 5.4894349864347287e+00 1.3101791741249853e+01 7.6571195411110811e+00 2 0 0
233 31 8 4.0999999999999998e-01 1.6669510811110886e+00 9.5570945529910443e+00 6.6857601990630551e+00 1 -2 0
240 34 7 -8.1999999999999995e-01 5.3951769021632083e+00 1.5706627701942347e+01 1.4205457560862469e-01 -1 0 0
254 38 8 4.0999999999999998e-01 2.3037864726269390e+00 9.7567862283786120e+00 1.2676931935450437e+00 0 -1 -1
231 31 7 -8.1999999999999995e-01 1.1932970505767535e+00 9.7251001557790318e+00 7.5705706098506349e+00 1 -2 0
134 22 3 -1.3800000000000001e-01 5.2930205529961567e+00 1.5655925514171811e+01 4.0028893562887253e+00 -1 -1 0
90 20 2 -4.6100000000000002e-01 9.4623040559493732e-01 1.3330346846553818e+01 1.4758531529455778e+00 0 -1 0
160 24 2 -4.6100000000000002e-01 6.9629310802351463e-01 1.0584110776360788e+01 3.8029327818961680e+00 0 0 0
98 20 3 -1.3800000000000001e-01 6.9711156306943012e-01 1.5566753428170932e+01 3.4218059828851861e+00 0 -1 0
190 26 2 -4.6100000000000002e-01 2.4860210936954430e+00 8.5725250090444014e+00 4.7749401241318630e+00 0 0 0
22 15 2 -4.6100000000000002e-01 1.4575555388668395e+00 1.6538338108836598e+01 8.1071937185132459e+00 0 -1 -1
164 24 3 -1.3800000000000001e-01 3.9329133353268841e-01 1.2233724612050056e+01 6.1412102740938694e+00 0 0 0
5 5 1 8.0000000000000004e-01 5.8884669100179532e-01 1.1669460434707945e+01 1.2799718518410574e-01 0 -1 0
91 20 3 -1.3800000000000001e-01 2.8185105117452207e+00 1.6064162708399053e+01 3.2760751265835353e+00 0 -1 0
232 31 8 4.0999999999999998e-01 1.2563671160920211e+00 1.0716212644883610e+01 7.8064039478376133e+00 1 -2 0
45 17 2 -4.6100000000000002e-01 7.4682841395955686e+00 8.7858785540057536e+00 2.2504464896119254e+00 0 -1 0
131 22 3 -1.3800000000000001e-01 5.6198377099464842e+00 1.3808938794613194e+01 5.1354292556109833e+00 -1 -1 0
49 17 2 -4.6100000000000002e-01 7.0480829230323110e+00 1.0125903910643975e+01 2.9643844327906632e-01 0 -1 0
191 26 3 -1.3800000000000001e-01 5.6563757050556154e+00 1.0593265470584850e+01 4.1289640666349570e+00 0 0 0
48 17 5 9.1100000000000003e-01 7.5992874370174652e+00 8.8893056940783772e+00 7.9431965821469497e-01 0 -1 0
132 22 3 -1.3800000000000001e-01 5.7594186828349780e+00 1.3797683815557946e+01 2.9855445948439923e+00 -1 -1 0
278 46 8 4.0999999999999998e-01 8.2990952588067799e+00 9.8561875497292988e+00 3.8891064676202398e+00 0 -1 0
188 26 3 -1.3800000000000001e-01 7.1760219313802507e+00 8.8343350149934707e+00 6.4672088677778570e+00 0 0 0
309 57 7 -8.1999999999999995e-01 9.2877873749679125e+00 1.2083818803824297e+01 2.1191033514006929e+00 0 -1 -1
133 22 4 3.1900000000000001e-01 6.0248112147803443e+00 1.4524545623178582e+01 4.0938917525152636e+00 -1 -1 0
272 44 8 4.0999999999999998e-01 8.3023586575129915e+00 1.5576453464393891e+01 7.5385351918064514e-01 0 -2 1
129 22 5 9.1100000000000003e-01 7.7932284913832577e+00 1.4917215139598722e+01 4.2814785918832081e+00 -1 -1 0
126 22 6 -5.8799999999999997e-01 8.5064252414009101e+00 1.3374932051421105e+01 4.8564705592658264e+00 -1 -1 0
123 22 5 9.1100000000000003e-01 9.2075450968565171e+00 1.3227707825196731e+01 6.4171032800122632e+00 -1 -1 0
130 22 2 -4.6100000000000002e-01 8.4723441334949516e+00 1.5079848736533661e+01 2.9757931308112937e+00 -1 -1 0
127 22 2 -4.6100000000000002e-01 8.0391330916802417e+00 1.5923312682543411e+01 5.3505690853371615e+00 -1 -1 0
276 46 7 -8.1999999999999995e-01 9.2075838499399261e+00 1.0031209466185993e+01 4.3997432617509311e+00 0 -1 0
124 22 2 -4.6100000000000002e-01 9.1577390099515412e+00 1.1765580924957108e+01 6.4266556142870259e+00 -1 -1 0
182 26 4 3.1900000000000001e-01 6.6241150142407594e+00 9.4267444867631252e+00 7.5577381744778380e+00 0 0 0
311 57 8 4.0999999999999998e-01 8.8701675791414480e+00 1.2816368646888309e+01 2.7268627793576519e+00 0 -1 -1
4 4 1 8.0000000000000004e-01 1.0686025781183051e+01 1.0799578751069987e+01 2.8954590898741501e+00 0 -1 0
310 57 8 4.0999999999999998e-01 9.0856914310710462e+00 1.2299704527007812e+01 1.1589105852210551e+00 0 -1 -1
277 46 8 4.0999999999999998e-01 8.9030730152421462e+00 1.0558146004454199e+01 5.2203550199966049e+00 0 -1 0
185 26 3 -1.3800000000000001e-01 6.5309467624383926e+00 1.0735361922905076e+01 7.3209190674303972e+00 0 0 0
122 22 4 3.1900000000000001e-01 1.0928877332792291e+01 1.3938733217028430e+01 6.3000975351880779e+00 -1 -1 0
319 60 8 4.0999999999999998e-01 1.0975732522728688e+01 1.4526968387644057e+01 2.5686596397464907e+00 0 -1 -1
120 22 2 -4.6100000000000002e-01 8.3910680415297954e+00 1.3994633574143499e+01 7.3639406830969039e+00 -1 -1 0
259 40 8 4.0999999999999998e-01 1.0667415774144867e+01 8.4311508296555893e+00 1.7124817487190092e+00 -1 -1 1
128 22 3 -1.3800000000000001e-01 1.0796730389930900e+01 1.5246785637496188e+01 6.4186090366145265e+00 -1 -1 0
51 17 6 -5.8799999999999997e-01 9.2867131098334692e+00 8.8723381649046686e+00 4.6546659587219097e-01 0 -1 0
296 52 8 4.0999999999999998e-01 7.9802327302220544e+00 1.5610768042024516e+01 8.0759782971443297e+00 0 -2 0
125 22 3 -1.3800000000000001e-01 1.1602529160949308e+01 1.3482014594970273e+01 7.2775396817125833e+00 -1 -1 0
264 42 7 -8.1999999999999995e-01 1.2179165476755163e+01 8.9277387483486450e+00 5.3846510925068172e+00 -1 0 -1
101 20 3 -1.3800000000000001e-01 1.4771120950605731e+01 1.3945071685245599e+01 2.7821068794545184e-01 -1 -1 0
258 40 7 -8.1999999999999995e-01 1.1130265347335659e+01 8.7585330934474985e+00 2.5506371753418073e+00 -1 -1 1
70 18 2 -4.6100000000000002e-01 1.4298997584762864e+01 8.8066489494140683e+00 8.0240429478625330e+00 -1 0 -1
28 15 4 3.1900000000000001e-01 1.5532240841728990e+01 1.5805406955335835e+01 7.2566928459325775e+00 -1 -1 -1
318 60 7 -8.1999999999999995e-01 1.1898406237317843e+01 1.4649091738938569e+01 2.1452617172271022e+00 0 -1 -1
121 22 3 -1.3800000000000001e-01 1.1567333133710388e+01 1.3539591141772139e+01 5.1524783193247110e+00 -1 -1 0
265 42 8 4.0999999999999998e-01 1.3140403639428305e+01 9.3147736932343435e+00 5.3154748196275552e+00 -1 0 -1
156 24 6 -5.8799999999999997e-01 1.4827945466396956e+01 1.0269662551772766e+01 3.4166549559350270e+00 -1 0 0
229 30 8 4.0999999999999998e-01 1.2312950218066964e+01 1.3095923641617414e+01 1.9752212323864411e+00 0 -1 1
260 40 8 4.0999999999999998e-01 1.2147961644863173e+01 8.8085801001905466e+00 2.3964621172789378e+00 -1 -1 1
163 24 4 3.1900000000000001e-01 1.5830375591904646e+01 1.1791736741293061e+01 5.6501418486923454e+00 -1 0 0
162 24 3 -1.3800000000000001e-01 1.5315033712250569e+01 1.2806757734480476e+01 4.9093588093595697e+00 -1 0 0
230 30 8 4.0999999999999998e-01 1.3309921398483358e+01 1.1765278764765256e+01 2.1274186665421060e+00 0 -1 1
161 24 3 -1.3800000000000001e-01 1.5147264738943344e+01 1.1567965465010319e+01 6.8623434772962595e+00 -1 0 0
266 42 8 4.0999999999999998e-01 1.1881456706685416e+01 8.9732270628307624e+00 6.3366801550465697e+00 -1 0 -1
104 20 3 -1.3800000000000001e-01 1.4741773486471974e+01 1.6040976319345408e+01 5.9842391683613427e-01 -1 -1 0
150 24 2 -4.6100000000000002e-01 1.3704457116367283e+01 9.0731111453711648e+00 1.6400709415039403e+00 -1 0 0
228 30 7 -8.1999999999999995e-01 1.2369044893534600e+01 1.2069782095664227e+01 2.0022912827178105e+00 0 -1 1
153 24 5 9.1100000000000003e-01 1.5067834461644924e+01 9.3690751986267529e+00 1.9717598944639054e+00 -1 0 0
154 24 2 -4.6100000000000002e-01 1.5785586529144593e+01 1.0337705653537711e+01 1.0767967970002188e+00 -1 0 0
29 15 3 -1.3800000000000001e-01 1.5691293931331115e+01 1.5090917361525289e+01 6.1341696755601296e+00 -1 -1 -1
159 24 5 9.1100000000000003e-01 1.6050878529521711e+01 1.0353204022582704e+01 4.5829835391302707e+00 -1 0 0
320 60 8 4.0999999999999998e-01 1.2476765595538714e+01 1.5392027662157872e+01 2.6422347035142195e+00 0 -1 -1
157 24 2 -4.6100000000000002e-01 1.5938963660716407e+01 9.0701731875875886e+00 5.2887495524942905e+00 -1 0 0
27 15 3 -1.3800000000000001e-01 1.4458717062477863e+01 1.5189492564808207e+01 7.8523367080608377e+00 -1 -1 -1
13 13 1 8.0000000000000004e-01 1.1214650694581755e+01 1.4863989860475398e+01 1.4892235315917240e-01 0 0 0
39 16 5 9.1100000000000003e-01 1.3779874357784996e+00 1.0330034891343050e+01 1.3815577956705349e+01 0 -1 -1
85 19 2 -4.6100000000000002e-01 4.1252388484611169e+00 9.7530056519664949e+00 1.1841529997124148e+01 -1 -1 -1
40 16 2 -4.6100000000000002e-01 2.1717629767181430e+00 1.1564096408473940e+01 1.3998666706481254e+01 0 -1 -1
9 9 1 8.0000000000000004e-01 2.6412256853178744e+00 1.0092283969083601e+01 1.0180499483485359e+01 0 0 0
333 65 7 -8.1999999999999995e-01 3.4788095961395387e+00 1.3959378972570061e+01 1.3696482034635373e+01 2 -1 0
246 36 7 -8.1999999999999995e-01 2.4412638562444338e+00 1.5810908282553251e+01 1.1945581912281050e+01 0 -2 -2
43 16 4 3.1900000000000001e-01 1.9492508366355397e+00 8.8691207418830391e+00 1.4702967546378471e+01 0 -1 -1
248 36 8 4.0999999999999998e-01 1.4727408795218793e+00 1.5562245119707363e+01 1.1577903554286163e+01 0 -2 -2
316 59 8 4.0999999999999998e-01 4.3694027203480434e+00 1.4726746120971830e+01 9.0652269189761263e+00 -1 -2 -1
334 65 8 4.0999999999999998e-01 3.0131991710218866e+00 1.4609873021990984e+01 1.3145876812608202e+01 2 -1 0