variable        infile index data.mol
variable        mytemp index 298

# set up simulation
#read_restart    ${NAME}.restart.*

# the following information is saved to restart files
units           real
atom_style      full
boundary        p p p
pair_style      lj/cut/coul/long 7
kspace_style    pppm 0.0001
pair_modify     tail yes
pair_modify     mix arithmetic
special_bonds   amber

bond_style      harmonic
angle_style     harmonic
dihedral_style  charmm
#improper_style  cvff

read_data       ${infile}
read_data       data.mol
  orthogonal box = (0 0 0) to (16.5843 16.5843 16.5843)
  1 by 2 by 2 MPI processor grid
  reading atoms ...
  341 atoms
  reading velocities ...
  341 velocities
  scanning bonds ...
  4 = max bonds/atom
  scanning angles ...
  6 = max angles/atom
  scanning dihedrals ...
  12 = max dihedrals/atom
  reading bonds ...
  274 bonds
  reading angles ...
  389 angles
  reading dihedrals ...
  420 dihedrals
  4 = max # of 1-2 neighbors
  6 = max # of 1-3 neighbors
  12 = max # of 1-4 neighbors
  14 = max # of special neighbors
  special bonds CPU = 0.000583461 secs
  read_data CPU = 0.0136567 secs

#replicate       3 4 4

neighbor        2.0 bin
neigh_modify    delay 0 every 1 check yes page 1000000 one 20000
timestep        1.0
#velocity        all create ${mytemp} 314159265 mom yes rot yes dist gaussian

## end information that is saved to restart files

## create velocity profile
#minimize       1e-4 1e-6 10000 10000
#velocity        all create  ${mytemp} 314159265 units box
velocity        all zero linear units box
dump            DUMP all custom 1000 ${NAME}.lammpstrj id type x y z mol
dump            DUMP all custom 1000 mol.lammpstrj id type x y z mol
thermo_style    custom step vol temp press ke pe etotal enthalpy evdwl ecoul epair ebond eangle edihed eimp emol elong etail lx ly lz xy xz yz pxy pxz pyz pxx pyy pzz
thermo          1000
#
## thermostat and integrator

#fix             NPT all npt temp ${mytemp} ${mytemp} 100.0 iso 1.0 1.0 100.0
fix             NVT all nvt temp ${mytemp} ${mytemp} 100.0
fix             NVT all nvt temp 298 ${mytemp} 100.0
fix             NVT all nvt temp 298 298 100.0

restart         50000 restart.${NAME}.1 restart.${NAME}.2
restart         50000 restart.mol.1 restart.${NAME}.2
restart         50000 restart.mol.1 restart.mol.2
run             10000000
PPPM initialization ...
  using 12-bit tables for long-range coulomb (src/kspace.cpp:332)
  G vector (1/distance) = 0.374366
  grid = 12 12 12
  stencil order = 5
  estimated absolute RMS force accuracy = 0.0274815
  estimated relative force accuracy = 8.27598e-05
  using double precision KISS FFT
  3d grid and FFT values/proc = 3211 432
Neighbor list info ...
  update every 1 steps, delay 0 steps, check yes
  max neighbors/atom: 20000, page size: 1000000
  master list distance cutoff = 9
  ghost atom cutoff = 9
  binsize = 4.5, bins = 4 4 4
  1 neighbor lists, perpetual/occasional/extra = 1 0 0
  (1) pair lj/cut/coul/long, perpetual
      attributes: half, newton on
      pair build: half/bin/newton
      stencil: half/bin/3d/newton
      bin: standard
Per MPI rank memory allocation (min/avg/max) = 17.94 | 17.94 | 17.94 Mbytes
Step Volume Temp Press KinEng PotEng TotEng Enthalpy E_vdwl E_coul E_pair E_bond E_angle E_dihed E_impro E_mol E_long E_tail Lx Ly Lz Xy Xz Yz Pxy Pxz Pyz Pxx Pyy Pzz 
       0    4561.3294    299.20927    365.80348    303.24124   -775.57052   -472.32928   -447.99519   -72.052203    4885.6796   -1639.6348    96.964275    142.17211    624.92795            0    864.06433   -6453.2622   -48.271156      16.5843      16.5843      16.5843            0            0            0    1404.9384    -1850.669    1225.4171   -1362.4349   -1438.1247      3897.97 
    1000    4561.3294    291.19856    1867.2333    295.12258    -786.4272   -491.30461   -367.09194   -78.643672    4866.2994   -1668.3241    97.722752    166.52286    617.65128            0    881.89689   -6455.9798   -48.271156      16.5843      16.5843      16.5843            0            0            0    3309.0635   -1023.9583   -587.51298    791.98897    912.64261    3897.0684 
    2000    4561.3294     281.6456    2117.2771    285.44089   -749.06164   -463.62075   -322.77459   -72.318005    4885.5884   -1642.8219    102.80157    169.39619    621.56247            0    893.76024   -6456.0923   -48.271156      16.5843      16.5843      16.5843            0            0            0    3213.9839    1200.8734    1860.0788    1212.3988    3310.0291    1829.4033 
    3000    4561.3294    287.44537    1921.1151    291.31881   -775.80215   -484.48334   -356.68632   -71.417379    4893.9081   -1630.8917    90.447389    139.90515    624.73701            0    855.08955   -6453.3824   -48.271156      16.5843      16.5843      16.5843            0            0            0    2532.3092   -1430.7534    4429.8176   -1702.5215    3928.1093    3537.7575 
    4000    4561.3294     295.5423   -3587.3082    299.52485   -768.59032   -469.06547   -707.70149   -87.760545    4898.3089   -1646.1042    103.84734    150.54633    623.12024            0    877.51391   -6456.6525   -48.271156      16.5843      16.5843      16.5843            0            0            0     1365.792    1172.7253   -770.99452    -2084.485   -2733.4829   -5943.9566 
    5000    4561.3294    296.24567    2074.0001    300.23771   -789.27399   -489.03628     -351.069   -96.953052    4913.0217   -1637.6605    81.481385    146.09813    620.80699            0    848.38651   -6453.7291   -48.271156      16.5843      16.5843      16.5843            0            0            0   -1820.9822    2016.2929    431.83658    1974.7237    3187.7331    1059.5436 
    6000    4561.3294    329.94646    1623.8569    334.39263   -758.79166   -424.39903   -316.37632    -64.63673    4891.7541   -1628.6996    76.070034    178.36473    615.47319            0    869.90795    -6455.817   -48.271156      16.5843      16.5843      16.5843            0            0            0   -18.198604   -601.72923    -2421.032     5509.738    211.40419   -849.57148 
    7000    4561.3294    277.36462     521.0785    281.10222   -768.54011   -487.43789   -452.77454   -62.968905    4886.4538   -1625.4369    90.454245    155.19124    611.25131            0     856.8968   -6448.9218   -48.271156      16.5843      16.5843      16.5843            0            0            0    4617.0379   -842.58711    1726.6158   -1807.1223    2032.4791    1337.8786 
    8000    4561.3294    306.20823   -1053.1416    310.33451   -760.10981    -449.7753   -519.83271   -90.136838    4912.6003   -1633.8765    96.839589    159.53567    617.39145            0    873.76671     -6456.34   -48.271156      16.5843      16.5843      16.5843            0            0            0   -232.69975   -866.85465    1318.3954   -3494.9827   -3768.5823    4104.1403 
    9000    4561.3294    281.61739    599.44381     285.4123     -771.156   -485.74369   -445.86731   -56.632187    4852.3604   -1656.7862    87.450353     173.6433    624.53659            0    885.63023   -6452.5144   -48.271156      16.5843      16.5843      16.5843            0            0            0   -2073.5768   -4540.2935   -3054.0274    63.358581    1178.0904    556.88242 
   10000    4561.3294    321.44758   -2306.1137    325.77922   -800.97286   -475.19364   -628.60165   -95.820931    4901.5757    -1648.986    83.460482    147.52192    617.03075            0    848.01315   -6454.7408   -48.271156      16.5843      16.5843      16.5843            0            0            0   -1895.9761    -1146.917    2672.9008   -315.52359   -2773.3754    -3829.442 
   11000    4561.3294    296.12419    3804.0508    300.11459   -784.58658   -484.47199   -231.41774   -75.697449    4892.4968   -1638.2675    75.513871    166.12804    612.03898            0    853.68089   -6455.0668   -48.271156      16.5843      16.5843      16.5843            0            0            0   -863.15174    2085.4915   -3175.1817    7337.4289    3413.3117    661.41185 
   12000    4561.3294    301.86611    4616.7095    305.93388   -738.34575   -432.41187   -125.29769   -81.280789    4901.7037    -1633.032    99.409175    171.87472    623.40239            0    894.68629    -6453.455   -48.271156      16.5843      16.5843      16.5843            0            0            0   -551.00452    652.76419    423.68496     2057.273     4495.938    7296.9174 
   13000    4561.3294    293.68085    1579.4015    297.63832   -790.84528   -493.20695   -388.14151    -47.17796    4856.7204   -1645.2494    89.758801    141.12725    623.51809            0    854.40415   -6454.7919   -48.271156      16.5843      16.5843      16.5843            0            0            0    2091.4588    1798.9392    3416.0816    5349.7784    -4521.276    3909.7021 
   14000    4561.3294    317.69759    2019.7709    321.97869   -757.34122   -435.36253    -301.0027   -90.449578    4913.1636   -1630.7537    89.333621    172.44626    611.63262            0    873.41251   -6453.4678   -48.271156      16.5843      16.5843      16.5843            0            0            0   -520.53269    801.29176   -115.83984    1520.0987    144.30118    4394.9127 
   15000    4561.3294    298.58724   -5097.9334    302.61082   -764.05657   -461.44575   -800.57206   -111.65813     4917.238   -1647.2206    101.31189    155.53713    626.31496            0    883.16398   -6452.8004   -48.271156      16.5843      16.5843      16.5843            0            0            0    3168.2427   -5106.1487    3670.3501   -8441.2226   -3256.7203   -3595.8573 
   16000    4561.3294     283.7646    455.60214    287.58844   -775.14714    -487.5587   -457.25099   -55.601659    4867.3423   -1644.1832     97.01643    158.20265    613.81695            0    869.03604   -6455.9238   -48.271156      16.5843      16.5843      16.5843            0            0            0   -744.09276   -3558.4922   -355.08694    4467.9683    225.52877   -3326.6907 
   17000    4561.3294    318.39085    2821.1959     322.6813    -772.7136    -450.0323   -262.35983   -68.589121    4888.1611   -1633.5476    86.819224    155.66961    618.34522            0    860.83405   -6453.1196   -48.271156      16.5843      16.5843      16.5843            0            0            0   -972.16984   -3502.5999   -1682.7713    5337.9901    3068.6832    56.914452 
   18000    4561.3294    305.49714   -365.41705    309.61384   -781.41051   -471.79667   -496.10506    -81.58597    4872.5844   -1662.9232    97.611101    159.08534    624.81623            0    881.51268   -6453.9216   -48.271156      16.5843      16.5843      16.5843            0            0            0    2387.1154    3523.3431   -3434.5023   -2304.1056   -2948.9752    4156.8296 
   19000    4561.3294     298.8631    1932.0819    302.89041   -786.92491   -484.03451   -355.50796   -67.300033    4858.4268   -1662.0209    90.297241    167.82589    616.97282            0    875.09594   -6453.1476   -48.271156      16.5843      16.5843      16.5843            0            0            0   -3311.4907    1612.7809   -1001.7537    2629.0572    1954.0694     1213.119 
   20000    4561.3294    303.31398   -1648.3904    307.40126   -767.21774   -459.81648   -569.47121   -79.122556    4887.7394    -1646.661      101.308    155.07106    623.06418            0    879.44325   -6455.2778   -48.271156      16.5843      16.5843      16.5843            0            0            0    1996.2296    2603.0386    2894.1914   -6541.2499    126.42013    1469.6587 
   21000    4561.3294    309.17171    -2662.436    313.33793   -796.88467   -483.54674   -660.65813   -79.341907    4873.8535   -1656.8831    97.666058    152.00221    610.33019            0    859.99846   -6451.3948   -48.271156      16.5843      16.5843      16.5843            0            0            0   -2112.6416   -1279.2338   -1109.6708   -5150.3877    354.84088   -3191.7611 
   22000    4561.3294    318.29548   -2655.2971    322.58465   -765.27883   -442.69418   -619.33068    -88.52704    4884.7549   -1656.8566    100.30801    175.33375    615.93599            0    891.57775   -6453.0845   -48.271156      16.5843      16.5843      16.5843            0            0            0   -852.90404      1056.46    2314.6905   -134.72378    -4145.835   -3685.3325 
   23000    4561.3294    304.57775   -4799.3332    308.68206   -784.12843   -475.44637   -794.70911   -86.698907    4877.2043   -1662.6423    101.59556    157.50947    619.40883            0    878.51386   -6453.1477   -48.271156      16.5843      16.5843      16.5843            0            0            0   -1436.5052   -2289.6493    1117.5455    1154.0032   -4284.7056   -11267.297 
   24000    4561.3294    290.72709   -2314.3149    294.64476   -762.27098   -467.62622    -621.5798   -65.331686    4856.5277   -1663.0826    114.74201    166.58751    619.48206            0    900.81157   -6454.2786   -48.271156      16.5843      16.5843      16.5843            0            0            0   -4904.0198   -117.85664   -1098.7443    1111.8303   -6421.8892   -1632.8857 
   25000    4561.3294    317.98619    565.98775    322.27119   -767.78022   -445.50903   -407.85822   -88.363082    4923.1369   -1622.9203    97.473935    145.35991    612.30623            0    855.14007   -6457.6941   -48.271156      16.5843      16.5843      16.5843            0            0            0    2148.6643   -1174.2673    1207.8831   -1648.1497   -114.52679    3460.6397 
   26000    4561.3294    297.32239    6068.8299    301.32893   -752.43216   -451.10322   -47.390636   -79.223878    4906.3648   -1626.5948    91.691195    165.46521    617.00628            0    874.16269   -6453.7358   -48.271156      16.5843      16.5843      16.5843            0            0            0   -3764.7554   -733.74384    889.09691    8368.2773    3293.6939    6544.5186 
   27000    4561.3294    269.78287    -2374.203    273.41831   -787.89762   -514.47931   -672.41679   -83.264128    4883.5712   -1653.1774    100.25843    139.26898    625.75234            0    865.27975   -6453.4845   -48.271156      16.5843      16.5843      16.5843            0            0            0   -741.64518   -2658.2773    2503.2868   -946.07388   -5628.1326   -548.40254 
   28000    4561.3294    317.22301    2993.9735    321.49772   -774.95512    -453.4574   -254.29137   -86.100788    4896.9975   -1642.8136    94.584812    153.53069    619.74297            0    867.85848   -6453.7103   -48.271156      16.5843      16.5843      16.5843            0            0            0   -1808.3927    483.96272   -3025.3195    4902.7662    120.15199    3959.0024 
   29000    4561.3294    303.21176   -780.29673    307.29767   -797.67715   -490.37948   -542.28662   -70.458401    4852.7721   -1671.8578    84.850332    175.08016    614.25019            0    874.18068   -6454.1715   -48.271156      16.5843      16.5843      16.5843            0            0            0    1470.6168    4644.8525   -453.87901   -7499.4693   -1141.1977    6299.7768 
   30000    4561.3294    304.69432    99.265598     308.8002   -790.67674   -481.87654   -475.27316    -71.65173    4853.1229   -1670.8423     89.17769    164.96468    626.02321            0    880.16558   -6452.3135   -48.271156      16.5843      16.5843      16.5843            0            0            0   -1093.1784    2193.7146    -494.7124    11.518898    640.11407   -353.83617 
   31000    4561.3294    302.29514    1065.5005    306.36869   -779.80088   -473.43219   -402.55264   -99.255086    4911.0421   -1642.0737    87.774254    153.61559    620.88297            0    862.27281   -6453.8607   -48.271156      16.5843      16.5843      16.5843            0            0            0    2316.6492    323.33456    1780.3194   -712.53308    3382.5916     526.4428 
   32000    4561.3294     293.4401    2592.4218    297.39433    -790.6356   -493.24128   -320.78739   -83.524295    4906.9926   -1631.2077    89.000502    136.92105    614.65051            0    840.57206    -6454.676   -48.271156      16.5843      16.5843      16.5843            0            0            0    2478.0003   -1654.6536    2001.6389    4345.6576     4468.369   -1036.7613 
   33000    4561.3294    302.05054   -280.50594    306.12079   -756.67501   -450.55422   -469.21412    -95.87889    4904.1172   -1647.3155    102.48461    166.72843    621.42744            0    890.64048   -6455.5538   -48.271156      16.5843      16.5843      16.5843            0            0            0    2774.6971    2983.3079    2226.4559    4353.7355   -2104.0481   -3091.2053 
   34000    4561.3294    292.16629    -76.58215    296.10335   -756.72682   -460.62347    -465.7179   -61.305484    4857.5122   -1659.9788    117.91523    166.19338    619.14335            0    903.25196   -6456.1855   -48.271156      16.5843      16.5843      16.5843            0            0            0   -1430.3578    -2608.211    722.36214   -1630.7165    3166.6996   -1765.7295 
   35000    4561.3294    277.03152    2845.5953    280.76464   -777.38825   -496.62362   -307.32804   -82.612913    4884.7293   -1655.7653    107.02697    158.89678    612.45332            0    878.37707   -6457.8817   -48.271156      16.5843      16.5843      16.5843            0            0            0   -65.502087   -2174.7534   -6586.1549    990.10886    3263.9311    4282.7461 
   36000    4561.3294    301.14333    1286.6807    305.20136   -784.76034   -479.55898   -393.96601   -90.297223    4874.9172   -1667.9106    93.359004    173.20986    616.58144            0    883.15031   -6452.5306   -48.271156      16.5843      16.5843      16.5843            0            0            0   -2169.9506    864.14529    2827.1562    4948.4185    5200.0348   -6288.4113 
   37000    4561.3294    319.80743    4816.5008    324.11697   -776.45143   -452.33446    -131.9297   -73.398482    4875.7867   -1654.5152    100.48538    157.93041    619.64793            0    878.06372   -6456.9033   -48.271156      16.5843      16.5843      16.5843            0            0            0   -3287.3365   -5007.4186    316.86177    997.76439     5631.412     7820.326 
   38000    4561.3294    294.27337    980.36807    298.23882   -783.48413   -485.24531   -420.02896   -84.879954    4903.9933   -1636.8135     99.02799    142.75915    611.54225            0    853.32939   -6455.9268   -48.271156      16.5843      16.5843      16.5843            0            0            0   -6289.5296   -1461.3026    1088.2454    429.45562    3361.4801   -849.83146 
   39000    4561.3294    312.23839    291.49777    316.44594   -742.55745   -426.11151   -406.72041   -76.917845    4904.9267   -1623.8787    110.74075    158.06514     612.5154            0    881.32129   -6451.8876   -48.271156      16.5843      16.5843      16.5843            0            0            0    5076.0493    922.93464    410.96594    1725.7908     37.67894   -888.97645 
   40000    4561.3294    274.14342   -2059.9425    277.83761   -767.38489   -489.54728   -626.57941   -95.036164    4894.4148   -1654.4872    98.791052    171.31071    617.00054            0     887.1023   -6453.8659   -48.271156      16.5843      16.5843      16.5843            0            0            0   -3911.4651    271.22537   -462.96379   -1100.7225    -4675.932   -403.17313 
   41000    4561.3294    314.40725    -2475.028    318.64402    -788.5123   -469.86828   -634.51286   -80.007422     4883.274   -1652.1364    97.881782    146.70686    619.03544            0    863.62408    -6455.403   -48.271156      16.5843      16.5843      16.5843            0            0            0   -856.03864    2864.6105   -2265.9408   -3218.4409   -1032.6172   -3174.0259 
   42000    4561.3294    310.39729   -1204.7978    314.58002   -782.32642    -467.7464   -547.89233   -84.468599     4895.134   -1644.9377    95.146789    151.00073    616.46376            0    862.61127   -6455.6031   -48.271156      16.5843      16.5843      16.5843            0            0            0   -1325.5496   -917.39892   -2241.7802   -674.43715   -3238.7977    298.84148 
   43000    4561.3294    283.72303   -528.35605    287.54632   -777.87827   -490.33195   -525.47942   -73.855801    4897.6876   -1632.7054    73.698049    154.85397    626.27506            0    854.82708   -6456.5371   -48.271156      16.5843      16.5843      16.5843            0            0            0    1493.2641    1230.1631   -3582.7758   -1514.2936     447.6154   -518.38992 
   44000    4561.3294    301.85703    -2306.634    305.92468    -772.7731   -466.84842   -620.29104   -104.60907    4919.0367   -1639.0113    100.31869    158.33238    607.58712            0    866.23819   -6453.4389   -48.271156      16.5843      16.5843      16.5843            0            0            0    -872.8539   -2428.6552   -2090.9006   -5018.4982   -1993.5026     92.09859 
   45000    4561.3294    302.41833   -5173.4359    306.49354   -795.26816   -488.77462   -832.92352   -70.832064    4851.6772   -1673.0567    104.63362    163.91351    609.24136            0    877.78849   -6453.9018   -48.271156      16.5843      16.5843      16.5843            0            0            0   -1752.6741    37.884235     3592.526   -3896.0251   -7143.0933   -4481.1893 
   46000    4561.3294    278.40051    1930.5731    282.15207   -760.85034   -478.69827   -350.27208   -77.969921    4887.0708   -1643.6787    102.57523    161.39734    618.85579            0    882.82836   -6452.7796   -48.271156      16.5843      16.5843      16.5843            0            0            0    2072.0693    1724.2129    892.05774    1849.9189    1849.7652    2092.0351 
   47000    4561.3294    300.93725   -886.20746    304.99251   -763.96873   -458.97622   -517.92879   -78.330792    4873.7203   -1658.2876    102.16406    169.99627    622.15852            0    894.31886   -6453.6771   -48.271156      16.5843      16.5843      16.5843            0            0            0    960.24734     3931.347    1195.4041   -4346.0543    1052.1233    635.30863 
   48000    4561.3294    305.77786    400.46864    309.89835   -782.70168   -472.80333   -446.16323   -73.009509    4878.3599   -1645.8292    97.561391    156.69493    608.87125            0    863.12756   -6451.1797   -48.271156      16.5843      16.5843      16.5843            0            0            0   -2083.0434    -4685.986    1160.5532    1813.8601   -1831.1523    1218.6981 
   49000    4561.3294    308.43797   -820.10111     312.5943   -783.18844   -470.59414   -525.14916   -73.285719    4869.0287   -1657.1408    89.251057    163.38228    621.31905            0    873.95239   -6452.8838   -48.271156      16.5843      16.5843      16.5843            0            0            0     3290.858    4750.8716    942.74694    913.28527   -6218.1975    2844.6089 
   50000    4561.3294    313.12908    2040.9067    317.34862   -770.24667   -452.89805   -317.13222   -83.184648    4916.5161    -1622.796    86.658406    158.67701    607.21394            0    852.54935   -6456.1275   -48.271156      16.5843      16.5843      16.5843            0            0            0    191.12517    3651.1839   -1805.0357      4178.21   -1153.3376    3097.8476 
   51000    4561.3294    293.02247    1097.4638    296.97107   -796.28996   -499.31889   -426.31306   -74.493822    4872.9121   -1659.2619    97.999346    145.07031    619.90228            0    862.97194   -6457.6802   -48.271156      16.5843      16.5843      16.5843            0            0            0     -2999.04   -1363.4193   -689.64248   -603.62696    3174.6676    721.35064 
   52000    4561.3294    323.53165   -1769.1755    327.89137    -783.5228   -455.63143   -573.32107   -89.155041    4901.0964   -1644.9983    94.856083    155.05948    611.55999            0    861.47555   -6456.9397   -48.271156      16.5843      16.5843      16.5843            0            0            0     3331.306    -1966.004   -1479.1014    688.90834   -3573.6544   -2422.7803 
   53000    4561.3294    299.93733   -831.69392    303.97911   -801.49804   -497.51894   -552.84514   -76.740663    4849.3276   -1679.4365    111.14827    145.17062    621.61954            0    877.93843   -6452.0235   -48.271156      16.5843      16.5843      16.5843            0            0            0   -1518.0533    1525.4503    563.40122   -3377.4145    171.00908    711.32362 
   54000    4561.3294    300.50719   -4720.7383    304.55665   -780.40757   -475.85091   -789.88533   -69.996234     4858.322    -1663.044    106.36983    154.83675    621.42983            0    882.63641   -6451.3698   -48.271156      16.5843      16.5843      16.5843            0            0            0   -1647.0014    2005.4276   -3638.7325   -3695.9983    -6317.798   -4148.4187 
   55000    4561.3294    294.19542    -4883.073    298.15983   -773.10926   -474.94943   -799.78272    -89.53821    4864.0663   -1681.1545    118.55015    175.11623    614.37882            0     908.0452   -6455.6826   -48.271156      16.5843      16.5843      16.5843            0            0            0   -1916.4766   -4852.3186     1018.968   -4921.0652   -3450.7137   -6277.4401 
   56000    4561.3294    294.24369   -4462.8064    298.20875   -808.51288   -510.30413   -807.18033   -93.070626    4877.7817   -1671.5759    93.941127    154.49736    614.62455            0    863.06303    -6456.287   -48.271156      16.5843      16.5843      16.5843            0            0            0    1233.9762     626.3761    5212.5447   -8621.5207    -1807.804   -2959.0946 
   57000    4561.3294    329.65974    -1283.807    334.10204   -777.70564    -443.6036   -529.00541   -81.911575    4885.8438   -1650.1773    95.969098    161.63958    614.86301            0    872.47169   -6454.1095   -48.271156      16.5843      16.5843      16.5843            0            0            0    409.99803    1609.6399   -1125.2895   -2835.6908    1415.9529   -2431.6831 
   58000    4561.3294    305.55421    496.69843    309.67168   -782.59392   -472.92225   -439.88072   -75.686282    4881.7384   -1648.8622    102.18398    145.83317    618.25114            0     866.2683   -6454.9143   -48.271156      16.5843      16.5843      16.5843            0            0            0   -1533.1801    665.39025    1425.4175   -2680.3852    3218.0699    952.41065 
   59000    4561.3294    300.50264   -318.38434    304.55203    -812.2134   -507.66137   -528.84103   -68.345226    4869.9719   -1655.6233    83.440512    143.68839    616.28097            0    843.40988     -6457.25   -48.271156      16.5843      16.5843      16.5843            0            0            0    1321.1367   -2815.5819    1809.7659   -248.00461   -2769.7155    2062.5671 
   60000    4561.3294    310.92983    1283.7749    315.11974   -803.45907   -488.33933   -402.93965   -85.114057    4872.6851   -1668.0231    97.803334      146.078    620.68266            0      864.564   -6455.5941   -48.271156      16.5843      16.5843      16.5843            0            0            0   -4644.4275    2856.2772    69.800498    1470.4149    -2808.148    5189.0578 
   61000    4561.3294    278.66812   -702.53368    282.42329   -760.39051   -477.96721   -524.70138   -87.119018    4896.3749   -1643.9909    102.92016    160.40788    620.27233            0    883.60037   -6453.2468   -48.271156      16.5843      16.5843      16.5843            0            0            0   -1756.9157    2765.5878     -1519.16   -784.92505     884.6619   -2207.3379 
   62000    4561.3294    300.38755   -4973.7059     304.4354   -781.82743   -477.39203   -808.25444   -94.246142    4897.6334   -1654.5684    95.358336    160.35883     617.0238            0    872.74097   -6457.9557   -48.271156      16.5843      16.5843      16.5843            0            0            0   -3164.5585    502.45219   -1265.8846   -1117.2109   -8413.5464   -5390.3603 
   63000    4561.3294    276.86455   -652.75014    280.59542   -811.25974   -530.66432   -574.08677   -56.132753    4853.2158   -1659.1644    89.896136    132.29871    625.70978            0    847.90463   -6456.2474   -48.271156      16.5843      16.5843      16.5843            0            0            0   -268.95019    19.270947    2369.8133   -4895.7035     3307.862   -370.40886 
   64000    4561.3294    308.77032    278.17032    312.93113   -754.62731   -441.69618   -423.19165   -62.424222    4872.0194   -1644.3706    103.74508    169.03412    616.96404            0    889.74324   -6453.9658   -48.271156      16.5843      16.5843      16.5843            0            0            0   -1374.0163    3052.9733    1768.6686    59.308064   -1273.1826    2048.3855 
   65000    4561.3294    298.81292    706.15378    302.83955   -794.88849   -492.04894   -445.07396    -86.33976    4873.8387   -1669.5857    86.565827    172.34133    615.79003            0    874.69719   -6457.0846   -48.271156      16.5843      16.5843      16.5843            0            0            0   -1992.3762   -58.478647    2112.5082    529.13772    3629.5596   -2040.2359 
   66000    4561.3294    299.36142    1282.0259    303.39544   -784.16943   -480.77399   -395.49066   -45.753438    4838.7695   -1664.2598    94.933759    167.78602    617.37059            0    880.09037   -6457.2758   -48.271156      16.5843      16.5843      16.5843            0            0            0    3682.3147    173.59977    392.63137    3783.2877    420.89438   -358.10433 
   67000    4561.3294    281.48256   -81.757099    285.27565   -763.92881   -478.65316   -484.09183   -64.392622    4890.2463   -1631.3453    90.167106    163.80005    613.44938            0    867.41653    -6457.199   -48.271156      16.5843      16.5843      16.5843            0            0            0   -2673.9989    2361.9088    791.34084   -3103.7249   -2002.4104     4860.864 
   68000    4561.3294    277.92511   -291.64075    281.67027    -783.9201   -502.24983   -521.65045   -87.417056    4889.4093   -1654.0004    94.335924    162.60168     613.1427            0    870.08031   -6455.9926   -48.271156      16.5843      16.5843      16.5843            0            0            0     590.8811   -574.04497   -368.45816   -2562.5962    220.62941    1467.0445 
   69000    4561.3294     323.8876    589.07309    328.25212   -763.53835   -435.28622   -396.09972   -79.453777    4909.2416   -1626.9177    98.884854    145.09746    619.39705            0    863.37937   -6456.7055   -48.271156      16.5843      16.5843      16.5843            0            0            0    1364.8458   -2372.6568   -2273.2255    2545.6057    1815.2038   -2593.5902 
   70000    4561.3294    291.75807    677.33655    295.68963   -778.05331   -482.36368   -437.30569   -46.890267    4846.6035   -1655.3581    103.60044     155.9358    617.76858            0    877.30482   -6455.0713   -48.271156      16.5843      16.5843      16.5843            0            0            0    602.68772   -1889.9455   -1973.1141    1762.8517   -238.38991    507.54783 
   71000    4561.3294    293.26181   -1756.7261    297.21364   -776.59463     -479.381   -596.24247   -80.968841     4878.077   -1658.8633    96.906007     169.4188    615.94384            0    882.26865   -6455.9714   -48.271156      16.5843      16.5843      16.5843            0            0            0    -2967.136   -2878.3869   -1153.2037   -1306.6174    802.89954   -4766.4604 
   72000    4561.3294      313.813     1529.523    318.04176   -774.41893   -456.37717   -354.62977   -83.479867    4898.9803   -1639.3343    90.987611    161.10808    612.81971            0    864.91541   -6454.8348   -48.271156      16.5843      16.5843      16.5843            0            0            0    5303.7194   -2278.1935   -5010.3641   -2028.2026     2870.992    3745.7797 
   73000    4561.3294    307.75295    1097.7446    311.90005   -752.40986   -440.50981    -367.4853   -98.039701    4898.5341   -1653.4816    110.30855    165.08514    625.67809            0    901.07177    -6453.976   -48.271156      16.5843      16.5843      16.5843            0            0            0   -1819.0277    2056.2859   -1398.5842   -1097.2036    4576.1384   -185.70101 
   74000    4561.3294    296.81485    -2498.906    300.81455   -789.19079   -488.37624   -654.60924   -73.201672     4864.805   -1666.8889    93.190117    164.39939    620.10857            0    877.69808   -6458.4922   -48.271156      16.5843      16.5843      16.5843            0            0            0   -2849.5842    2036.0775    1130.5872    2230.6512   -2062.3265   -7665.0428 
   75000    4561.3294    291.74116    4549.9762    295.67249   -778.59214   -482.91965   -180.24471   -102.49238    4909.2842   -1648.0653    90.449581    155.78942    623.23419            0    869.47318   -6454.8571   -48.271156      16.5843      16.5843      16.5843            0            0            0     436.0914   -1103.3517    3278.6305    2455.9635     8537.524    2656.4412 
   76000    4561.3294    292.82126   -1048.0672    296.76715   -798.69821   -501.93106   -571.65091   -78.839612    4881.0393   -1650.1833    80.463616     150.7198    620.30171            0    851.48513    -6452.383   -48.271156      16.5843      16.5843      16.5843            0            0            0   -3704.4335     2903.794    763.79447    1028.3772    -366.7055   -3805.8734 
   77000    4561.3294     319.1149    1926.9856    323.41511   -759.80854   -436.39343    -308.2059   -90.773922    4917.3239   -1628.8995    89.634387    157.67584    621.78077            0      869.091   -6455.4495   -48.271156      16.5843      16.5843      16.5843            0            0            0   -2034.3062   -299.03301   -715.51231   -3443.1251    4830.9606    4393.1212 
   78000    4561.3294    269.44748     404.0355     273.0784   -757.57144   -484.49304   -457.61567   -75.700247    4891.3461   -1636.3066    100.06574    157.13136    621.53801            0    878.73512   -6451.9524   -48.271156      16.5843      16.5843      16.5843            0            0            0    1271.4425    1778.0509   -4612.5897    2973.4463   -29.328542   -1732.0113 
   79000    4561.3294     303.0035    4520.1036     307.0866   -768.02841   -460.94181   -160.25408    -41.80675    4851.4696   -1647.4516    105.39647    152.59163    621.43512            0    879.42323   -6457.1145   -48.271156      16.5843      16.5843      16.5843            0            0            0   -27.259402    593.21542    1729.6318   -1628.2251    8811.0628    6377.4731 
   80000    4561.3294    273.27299    3918.2422    276.95546   -766.13504   -489.17958   -228.52906   -86.056875    4911.2483   -1629.3913    92.706809    151.60947    618.93994            0    863.25622   -6454.5827   -48.271156      16.5843      16.5843      16.5843            0            0            0    326.18349     3087.343    -1864.444    3482.0747    5246.8098    3025.8421 
   81000    4561.3294    305.01768   -3443.2508    309.12792   -757.91159   -448.78367   -677.83667   -75.539688    4903.9675   -1623.5983    95.440865    151.79804    618.44782            0    865.68672   -6452.0262   -48.271156      16.5843      16.5843      16.5843            0            0            0   -909.26197    -2149.774     2332.519   -3147.3809    -5567.682   -1614.6894 
   82000    4561.3294    307.10411    7170.0013    311.24246   -785.05635   -473.81389    3.1511672   -67.352738    4879.5372   -1644.3386      81.2578    156.56738    621.45709            0    859.28228   -6456.5231   -48.271156      16.5843      16.5843      16.5843            0            0            0   -3548.7313   -1308.7105   -1328.0441    6166.9908    9917.5732      5425.44 
   83000    4561.3294    298.53764    -4757.397    302.56056   -755.62451   -453.06395   -769.53699   -77.481663    4875.8906   -1652.7366    105.40223    169.26398    622.44593            0    897.11214   -6451.1456   -48.271156      16.5843      16.5843      16.5843            0            0            0    1365.9031    2335.1781    381.19093   -9807.7114   -1164.3941   -3300.0855 
   84000    4561.3294    297.97308   -1848.4705    301.98839   -752.54803   -450.55964   -573.52417    -91.14379    4898.9876   -1647.6115    97.893318    180.58491    616.58528            0    895.06351   -6455.4553   -48.271156      16.5843      16.5843      16.5843            0            0            0   -1214.9581   -4090.2242    1395.6336    1166.4791   -6927.5796    215.68896 
   85000    4561.3294    297.97923     3838.126    301.99462   -765.13594   -463.14132   -207.82031   -68.227579    4892.4908   -1631.4447    102.68615    153.41413    610.20846            0    866.30873   -6455.7079   -48.271156      16.5843      16.5843      16.5843            0            0            0    -310.2904    1931.8544    -5620.584     4521.372    1818.4243    5174.5818 
   86000    4561.3294    283.80524   -78.690599    287.62964   -749.81551   -462.18587   -467.42055    -78.02794     4904.097   -1624.7453    97.743756    155.74397    621.44207            0     874.9298   -6450.8143   -48.271156      16.5843      16.5843      16.5843            0            0            0    1644.2844    392.62865   -1198.3455     1822.174    -678.1507   -1380.0951 
   87000    4561.3294    305.19723   -2312.6364    309.30989   -767.98668   -458.67678    -612.5187   -96.408822    4883.5099   -1667.8088    103.70483    171.59429    624.52297            0    899.82209   -6454.9098   -48.271156      16.5843      16.5843      16.5843            0            0            0    1727.8976   -2609.9648   -2940.3992   -2613.4223    -5392.523    1068.0361 
   88000    4561.3294    301.42102    -3152.062    305.48279   -768.47639    -462.9936   -672.67605   -87.582747    4889.7081   -1653.3859    95.176745    176.13997    613.59279            0     884.9095   -6455.5112   -48.271156      16.5843      16.5843      16.5843            0            0            0   -645.28584    1889.7558    1711.3445    -2346.158   -6194.2791   -915.74901 
   89000    4561.3294    294.98515   -577.29822     298.9602   -745.89306   -446.93286   -485.33607   -52.343034    4866.6741   -1635.8158    108.98688    159.67632    621.25957            0    889.92277   -6450.1469   -48.271156      16.5843      16.5843      16.5843            0            0            0   -1455.9942    354.08121     4795.387   -1321.9854   -959.53974    549.63043 
   90000    4561.3294    319.52453   -3497.2645    323.83026   -768.62604   -444.79578    -677.4419   -73.598928    4877.8938   -1649.3855    106.59881    160.03791    614.12277            0    880.75949   -6453.6804   -48.271156      16.5843      16.5843      16.5843            0            0            0    512.43712   -1684.3172    1584.8907   -2666.8182   -7493.9411   -331.03401 
   91000    4561.3294    300.15646    2917.4232     304.2012   -745.57827   -441.37707   -247.30333   -67.166912    4925.2166    -1594.342    99.381216    131.82292     617.5596            0    848.76374   -6452.3917   -48.271156      16.5843      16.5843      16.5843            0            0            0    575.36649     97.69357    1111.5476     4457.986    1040.4019    3253.8818 
   92000    4561.3294    297.99413    608.06444    302.00973   -753.35611   -451.34638   -410.89653   -80.752346    4900.9072   -1631.5833    98.232361    165.72847    614.26635            0    878.22718   -6451.7381   -48.271156      16.5843      16.5843      16.5843            0            0            0     227.2943   -2617.9815    4493.0755    2140.2818     3897.962   -4214.0505 
   93000    4561.3294    290.95066   -3765.2679    294.87134   -746.23276   -451.36142   -701.83574   -75.423554    4884.9701   -1641.6679    108.24328     165.0343    622.15751            0    895.43509   -6451.2144   -48.271156      16.5843      16.5843      16.5843            0            0            0    1872.0262   -1508.2933   -910.83001   -2029.6646    151.98212   -9418.1214 
   94000    4561.3294      313.093    1587.3206    317.31206   -752.03446   -434.72241   -329.13017   -103.51257    4941.3008   -1614.7802    95.406286    147.32727    620.01222            0    862.74577   -6452.5685   -48.271156      16.5843      16.5843      16.5843            0            0            0    1081.3738    3784.9238    398.69165    2119.2844    3113.9701    -471.2928 
   95000    4561.3294    280.16726    3172.9179    283.94263   -752.08097   -468.13834   -257.06851   -85.424642    4903.9394   -1631.6092    104.39487    157.90544    617.22793            0    879.52824   -6450.1239   -48.271156      16.5843      16.5843      16.5843            0            0            0   -1575.0467    1328.9723   -2858.4682    4148.5912    4286.2822    1083.8804 
   96000    4561.3294    314.76157      -620.58    319.00311   -726.39046   -407.38735   -448.66977   -75.804287    4918.1358   -1608.2924    101.36364    163.41871    617.11958            0    881.90193   -6450.6239   -48.271156      16.5843      16.5843      16.5843            0            0            0   -2524.9982    4766.9706    1175.4964   -1598.4013   -5847.5131    5584.1744 
   97000    4561.3294    278.90587    2110.1109    282.66425   -766.99342   -484.32917   -343.95972   -76.243227    4906.8948   -1621.3118     86.98496     149.1291    618.20434            0     854.3184   -6451.9634   -48.271156      16.5843      16.5843      16.5843            0            0            0   -2828.8992    344.65639   -610.41232    249.50012     4442.183    1638.6497 
   98000    4561.3294    300.54364    -1943.135    304.59359     -768.648   -464.05441   -593.31625   -89.808335    4912.9424   -1625.0014    97.580714    145.02683    613.74584            0    856.35338   -6448.1355   -48.271156      16.5843      16.5843      16.5843            0            0            0   -4631.2201   -4128.7001   -92.071398    -4676.763   -2282.9215    1130.2794 
   99000    4561.3294    319.20662    526.75177    323.50806   -784.58639   -461.07832   -426.03758   -70.417049    4885.5957   -1637.2245    89.628552    140.71621    622.29338            0    852.63815   -6452.4032   -48.271156      16.5843      16.5843      16.5843            0            0            0    1072.4417    757.62637   -637.22246    4579.6664    -1871.626   -1127.7852 
  100000    4561.3294    295.20749    3531.8562    299.18554   -740.62865   -441.44311   -206.49588   -72.149718     4915.889   -1609.1469    96.171033    159.80896    612.53831            0     868.5183   -6452.8862   -48.271156      16.5843      16.5843      16.5843            0            0            0   -274.49963   -26.640709    1559.3242    4129.8766    2825.8991    3639.7929 
  101000    4561.3294     303.0965    1914.6989    307.18085   -765.75759   -458.57674   -331.20655   -70.642407    4908.6778   -1614.9397    97.325624    136.77617     615.0803            0    849.18209   -6452.9751   -48.271156      16.5843      16.5843      16.5843            0            0            0   -132.84466   -1085.3455   -3536.3466   -668.15443    4904.2857    1507.9654 
  102000    4561.3294    300.21808   -1256.1854    304.26365    -755.7313   -451.46765     -535.032   -102.47677    4940.8805   -1617.7383    84.335773    159.30555    618.36568            0      862.007    -6456.142   -48.271156      16.5843      16.5843      16.5843            0            0            0    -2061.745    3727.2795   -708.87512    1223.6414   -4556.4943   -435.70328 
  103000    4561.3294    321.86287   -1216.6821    326.20011   -759.69402   -433.49391   -514.43042   -88.556551    4911.8113   -1630.0084    96.291068    157.19966    616.82366            0    870.31439   -6453.2632   -48.271156      16.5843      16.5843      16.5843            0            0            0    1645.0443    2067.8764   -639.67991   -1389.1899    567.34413   -2828.2006 
  104000    4561.3294     277.4214    6564.5996    281.15977   -715.76311   -434.60334     2.088997   -51.099689    4910.0314    -1597.301    102.40795    153.23581    625.89418            0    881.53793   -6456.2328   -48.271156      16.5843      16.5843      16.5843            0            0            0     1254.927   -671.80454    3296.3915     9450.044    5538.5889    4705.1659 
  105000    4561.3294    300.74709    5263.0844    304.79978   -725.80353   -421.00375   -70.891211    -69.46087    4922.9249   -1602.2393    96.206404    148.87092    631.35844            0    876.43576   -6455.7033   -48.271156      16.5843      16.5843      16.5843            0            0            0   -645.40012   -1838.8937     126.4841    9460.9479    4701.5818    1626.7236 
  106000    4561.3294    309.90841   -2564.9021    314.08456   -759.35639   -445.27183   -615.89504   -85.061407    4907.8327   -1628.1469    93.759871    153.28224    621.74836            0    868.79047   -6450.9181   -48.271156      16.5843      16.5843      16.5843            0            0            0   -4983.1971    919.23804   -1605.1718   -1954.9025   -2650.3819    -3089.422 
  107000    4561.3294    299.52431    4235.9043    303.56053   -724.36712   -420.80659   -139.02445   -70.734758    4899.0222   -1625.8895    107.26979     168.7105    625.54213            0    901.52241    -6454.177   -48.271156      16.5843      16.5843      16.5843            0            0            0   -2875.1719   -5182.5679    3269.9667    2891.3384    9908.1317   -91.757221 
  108000    4561.3294    292.48999   -3407.9963    296.43141   -744.82117   -448.38976   -675.09755   -87.062178    4919.4913   -1620.0282     101.9682    154.73139     618.5074            0    875.20699   -6452.4573   -48.271156      16.5843      16.5843      16.5843            0            0            0   -4494.4981   -4523.7902   -323.25807   -140.61962    -3625.722   -6457.6474 
  109000    4561.3294    284.40826   -4232.4973    288.24078   -735.00682   -446.76603   -728.32153   -87.972167    4916.8505   -1623.6934    106.69005    168.57573    613.42078            0    888.68657   -6452.5717   -48.271156      16.5843      16.5843      16.5843            0            0            0   -3345.9364    1349.3353    1657.1557   -3490.8018   -5574.0374   -3632.6526 
  110000    4561.3294    309.47661   -1310.6551    313.64694   -734.58459   -420.93765   -508.12546   -80.165156    4907.1183   -1628.2291    106.97769    160.25042    626.41635            0    893.64447   -6455.1822   -48.271156      16.5843      16.5843      16.5843            0            0            0    1332.0278    3408.9385   -735.19991    2750.8831   -5946.4683   -736.38017 
  111000    4561.3294    293.30212    1840.3845    297.25449   -749.60934   -452.35486   -329.92823   -84.747189    4918.5348   -1619.8387    96.673079    151.40765    622.14862            0    870.22935   -6453.6263   -48.271156      16.5843      16.5843      16.5843            0            0            0    453.09202    2156.8893   -607.60979    -1092.651    3002.4353    3611.3691 
  112000    4561.3294    293.99173   -939.07232    297.95339   -768.41566   -470.46227   -532.93153   -77.082268    4888.0034   -1642.6054    96.030968    159.90793    618.25081            0    874.18971   -6453.5265   -48.271156      16.5843      16.5843      16.5843            0            0            0    3981.7269   -2067.7127   -4575.7266   -3458.3484   -840.84819    1481.9796 
  113000    4561.3294    288.56549    1304.0135    292.45403   -744.26887   -451.81484   -365.06885   -106.07585    4952.8852   -1607.4334    95.999906    145.48455    621.68012            0    863.16457   -6454.2428   -48.271156      16.5843      16.5843      16.5843            0            0            0     -1007.95    1135.6101     854.8849   -1797.3874     305.0653    5404.3627 
  114000    4561.3294    299.07982     241.4882    303.11005   -769.82863   -466.71858   -450.65423   -114.78836    4943.5639   -1625.3199    91.582413    138.72093    625.18791            0    855.49125   -6454.0954   -48.271156      16.5843      16.5843      16.5843            0            0            0    708.66813     1352.508    3148.1036    3554.7581    902.47291   -3732.7664 
  115000    4561.3294    317.03121   -119.09166    321.30334    -771.2295   -449.92616   -457.84841   -88.539949    4888.2106   -1655.9562    89.687123    173.53974     621.4998            0    884.72667   -6455.6269   -48.271156      16.5843      16.5843      16.5843            0            0            0    -415.2721   -1564.7202   -1459.5278   -2878.5736    2743.9879   -222.68923 
  116000    4561.3294    311.59091     1265.695    315.78972   -767.42974   -451.64001   -367.44306   -109.07688    4927.2505   -1638.8218    99.021157    157.81793    614.55299            0    871.39208   -6456.9954   -48.271156      16.5843      16.5843      16.5843            0            0            0   -705.49511    1856.2788   -1684.7261    3523.5189   -2392.2341    2665.8001 
  117000    4561.3294    296.46891   -2933.3626    300.46395   -736.13014   -435.66619   -630.80024   -96.204108    4929.7161   -1621.0467    111.94976    154.29225    618.67458            0    884.91659   -6454.5587   -48.271156      16.5843      16.5843      16.5843            0            0            0    1151.0897    3306.1801   -4328.7316   -7595.2548    19.555519   -1224.3885 
  118000    4561.3294    287.03449    3602.0903    290.90239   -768.86562   -477.96322   -238.34385   -68.901318    4877.5378   -1648.0778     99.50084    166.59781    613.11354            0    879.21219   -6456.7143   -48.271156      16.5843      16.5843      16.5843            0            0            0   -2008.3877    220.33011   -819.11135    5260.4738    2673.2331    2872.5641 
  119000    4561.3294      305.873   -1952.7469    309.99476   -726.17772   -416.18296   -546.08419   -76.389451    4909.8407   -1619.3426    114.05291    167.72871    611.38328            0     893.1649   -6452.7939   -48.271156      16.5843      16.5843      16.5843            0            0            0   -2113.7208    -1190.638    2767.1789    4260.2425   -6773.3065   -3345.1766 
  120000    4561.3294    293.00211   -5029.1648    296.95044   -759.12374    -462.1733   -796.72496   -101.69373     4924.206   -1630.4908    90.661771    164.57852    616.12673            0    871.36703    -6453.003   -48.271156      16.5843      16.5843      16.5843            0            0            0     2731.591    117.83848    1314.1653   -4510.8652   -6000.4319   -4576.1972 
  121000    4561.3294    304.40849    2909.1728    308.51052   -744.27326   -435.76273   -242.23784   -79.090566    4912.2524   -1620.2461    106.95085    156.76711    612.25484            0     875.9728   -6453.4079   -48.271156      16.5843      16.5843      16.5843            0            0            0   -745.04067    221.79112   -170.43277    2605.8589    2807.7605    3313.8991 
  122000    4561.3294    277.02845   -5130.5352    280.76153   -752.38142   -471.61989   -812.91494   -78.661886     4915.289    -1613.951    97.696408    154.06856    609.80465            0    861.56962   -6450.5782   -48.271156      16.5843      16.5843      16.5843            0            0            0    96.908947   -1072.6328   -5071.3434   -1380.5915   -6581.5673   -7429.4468 
  123000    4561.3294    292.87524    962.97681    296.82186    -760.6026   -463.78074    -399.7213   -104.24286    4923.2199   -1636.8655    106.52169    159.84204    609.89914            0    876.26286   -6455.8425   -48.271156      16.5843      16.5843      16.5843            0            0            0    788.03903   -844.78425   -412.60353    402.93879    2427.8624    58.129243 
  124000    4561.3294     293.2928   -669.96886    297.24504   -767.62776   -470.38272    -514.9506   -81.862208    4890.7353   -1645.7793    97.459192    167.36026    613.33209            0    878.15154   -6454.6524   -48.271156      16.5843      16.5843      16.5843            0            0            0    1212.8153   -718.82636    1848.8195   -4141.7843    1059.3114    1072.5662 
  125000    4561.3294    288.14534   -5133.8705    292.02822   -741.98826   -449.96004   -791.47697   -106.54277    4934.1562   -1620.9851    118.03714    143.25701    617.70268            0    878.99683   -6448.5985   -48.271156      16.5843      16.5843      16.5843            0            0            0   -2993.1538   -4681.6441   -577.26154   -8739.0265   -4034.1084   -2628.4768 
  126000    4561.3294     295.3025    634.23446    299.28183   -747.99371   -448.71188   -406.52114   -100.84848    4910.1002   -1643.3148    110.67131     170.3442    614.30556            0    895.32107   -6452.5665   -48.271156      16.5843      16.5843      16.5843            0            0            0   -1370.2462    -1341.146   -1332.4721   -1364.8942    3900.2301   -632.63251 
  127000    4561.3294    297.77042   -79.448664      301.783    -777.8795   -476.09651   -481.38161   -95.886201    4903.1652   -1648.1729    98.334022    149.41095    622.54841            0    870.29338   -6455.4519   -48.271156      16.5843      16.5843      16.5843            0            0            0    3671.1376   -3730.3675   -1281.0504    1381.5714   -1983.1922    363.27476 
  128000    4561.3294    292.86945   -1147.3005    296.81599   -747.63568   -450.81969   -527.14077   -88.463122    4906.8757   -1633.2161    108.84031    154.85138    621.88876            0    885.58046   -6451.6287   -48.271156      16.5843      16.5843      16.5843            0            0            0   -866.64022   -1.8548645   -1609.6782    3189.5494   -1642.8165   -4988.6344 
  129000    4561.3294     315.8611   -4369.3693    320.11746   -759.02997   -438.91251   -729.57305   -96.359837    4880.7973   -1669.7446     109.0535    179.81555    621.84561            0    910.71466   -6454.1821   -48.271156      16.5843      16.5843      16.5843            0            0            0    2202.8963   -1214.2989   -3868.6789   -1815.0391   -7982.9547   -3310.1141 
  130000    4561.3294     298.5227    2288.3481    302.54542   -768.09557   -465.55015   -313.32394   -70.457285    4851.9928   -1670.8949    100.09281    188.13691    614.56962            0    902.79934   -6452.4304   -48.271156      16.5843      16.5843      16.5843            0            0            0    409.91341    1201.7345   -1327.9462    1335.2292    478.48401    5051.3311 
  131000    4561.3294    306.98705   -1087.3284    311.12383   -769.84452   -458.72068   -531.05228   -95.244217    4887.4213   -1656.1533    94.417619    171.56528    620.32591            0    886.30882   -6448.3304   -48.271156      16.5843      16.5843      16.5843            0            0            0    2669.5779    694.80907    38.469993   -1366.5276   -593.21962    -1302.238 
  132000    4561.3294    324.47323    816.69798    328.84564    -746.9835   -418.13786   -363.80923   -75.656698    4903.6343   -1622.7044    98.417514     149.3023    628.00108            0    875.72089    -6450.682   -48.271156      16.5843      16.5843      16.5843            0            0            0     4333.331   -1484.5998    2136.8378   -38.048863    -1293.306    3781.4488 
  133000    4561.3294    286.62579    6235.7727    290.48819   -773.42628   -482.93809   -68.120082   -56.922085    4892.3383   -1618.3227    88.686146    142.43864    613.77168            0    844.89647   -6453.7389   -48.271156      16.5843      16.5843      16.5843            0            0            0    2757.5202   -1740.5747    1726.6032    3398.6349    8006.8707    7301.8125 
  134000    4561.3294    309.46851   -1105.7633    313.63872   -769.08505   -455.44633   -529.00426   -70.472586    4875.1992   -1648.3773    99.773588    155.38622    624.13241            0    879.29222   -6453.1039   -48.271156      16.5843      16.5843      16.5843            0            0            0   -1042.4436    -1019.613   -1515.4992   -4204.3501    1057.1925   -170.13219 
  135000    4561.3294    291.13942    3662.5973    295.06265   -756.76617   -461.70353   -218.05909   -69.574078    4891.3103   -1631.5326    90.262892    166.51183    617.99167            0    874.76639   -6453.2688   -48.271156      16.5843      16.5843      16.5843            0            0            0   -1708.1814   -5988.3571   -2929.8918   -246.53501    5815.3124    5419.0146 
  136000    4561.3294    284.80471   -801.59754    288.64257   -791.55155   -502.90898    -556.2331   -88.148532    4887.6384    -1654.524    88.422173    162.49143    612.05888            0    862.97249   -6454.0139   -48.271156      16.5843      16.5843      16.5843            0            0            0    5674.7198   -2411.2519   -5215.5215   -1801.0279    188.35663   -792.12132 
  137000    4561.3294    291.44327   -2713.1401    295.37059   -760.63941   -465.26883   -645.75318   -75.387153    4907.2118    -1620.844    95.189447    149.83406    615.18112            0    860.20462   -6452.6687   -48.271156      16.5843      16.5843      16.5843            0            0            0    -272.0933   -614.08121    123.41046   -1006.4758   -4891.6508   -2241.2938 
  138000    4561.3294    271.61967   -279.93954    275.27986   -779.79206    -504.5122   -523.13442   -78.912002    4885.4148   -1646.7131    89.984012    155.87174    621.06529            0    866.92105   -6453.2158   -48.271156      16.5843      16.5843      16.5843            0            0            0    1364.3051    -1120.267   -3282.6034     485.8904    1196.6373   -2522.3464 
  139000    4561.3294    302.15117    4729.6131    306.22278    -765.0139   -458.79112   -144.16633   -46.574137    4859.5692   -1642.9284    102.03691    159.64134    616.23629            0    877.91454   -6455.9235   -48.271156      16.5843      16.5843      16.5843            0            0            0    4004.6661    1465.6173    1472.7564    5932.7768    7105.3324    1150.7302 
  140000    4561.3294    328.00649   -2749.2742    332.42652   -775.83567   -443.40916   -626.29723   -87.524999     4900.968   -1642.0025    92.654899    157.43863    616.07331            0    866.16683   -6455.4455   -48.271156      16.5843      16.5843      16.5843            0            0            0    209.15031    1307.4623   -1069.4217   -3860.1414   -7106.7149    2719.0335 
  141000    4561.3294    292.41657    1190.9868    296.35701   -762.83002   -466.47301   -387.24582   -68.980515    4892.9556   -1629.2765    95.910246    154.23278    616.30343            0    866.44646   -6453.2516   -48.271156      16.5843      16.5843      16.5843            0            0            0   -330.53743    2165.1658   -67.203579   -472.95824    5061.9209   -1016.0024 
  142000    4561.3294    292.23722    2758.8762    296.17523   -756.07718   -459.90194   -276.37512   -87.175616    4923.7821    -1620.932    87.130477    166.06186    611.66249            0    864.85483   -6457.5385   -48.271156      16.5843      16.5843      16.5843            0            0            0   -2070.4792   -2973.6345    2951.7983    1928.2068    261.24665    6087.1752 
  143000    4561.3294    307.00955    840.44126    311.14663   -761.63107   -450.48443   -394.57634   -84.531788    4897.4604   -1640.9027    93.470149    162.47418    623.32733            0    879.27166   -6453.8314   -48.271156      16.5843      16.5843      16.5843            0            0            0    2940.1799   -3210.3055    2079.7418    2659.2927   -1305.5048    1167.5359 
  144000    4561.3294    296.72584    94.976919    300.72434   -751.71195   -450.98761   -444.66953   -66.936228    4888.9388   -1629.4789    101.55586    155.90839    620.30268            0    877.76692   -6451.4815   -48.271156      16.5843      16.5843      16.5843            0            0            0    594.79398    1726.0684   -3795.2076    987.74429    4075.6611   -4778.4746 
  145000    4561.3294     309.0666   -1616.4993    313.23141   -761.25181   -448.02041   -555.55367   -95.682464    4909.7076   -1638.5904    97.541982    158.27747     621.5191            0    877.33855   -6452.6155   -48.271156      16.5843      16.5843      16.5843            0            0            0   -679.05749    1310.7682   -637.97243    -628.8656   -6944.8521    2724.2199 
  146000    4561.3294     302.1382   -916.93562    306.20963    -744.9051   -438.69547   -499.69215   -81.127507    4915.4473   -1618.0045    103.59639    152.62833    616.87464            0    873.09936   -6452.3243   -48.271156      16.5843      16.5843      16.5843            0            0            0    695.93218    1457.9494   -1377.3082   -1254.2656   -2002.2276    505.68632 
  147000    4561.3294     288.1451    -1725.612    292.02798   -747.42703   -455.39905   -570.19075    -83.93786    4926.6632   -1611.4155    91.781771    150.10619    622.10047            0    863.98843   -6454.1408   -48.271156      16.5843      16.5843      16.5843            0            0            0   -2196.5399    4931.6312    2209.9691   -2245.2144   -2148.8169   -782.80458 
  148000    4561.3294    316.62024   -1199.6587    320.88683   -745.77734   -424.89051   -504.69457   -73.882629    4900.1917   -1629.3901    102.32088    163.24756     618.0443            0    883.61274   -6455.6991   -48.271156      16.5843      16.5843      16.5843            0            0            0   -1955.6417    441.38889    178.37509   -2740.9685    2653.0479   -3511.0554 
  149000    4561.3294    303.91769    2732.0501    308.01311   -777.16897   -469.15586   -287.41357    -73.62375    4883.8911   -1643.2068    91.413818    155.33745    619.28658            0    866.03784   -6453.4741   -48.271156      16.5843      16.5843      16.5843            0            0            0    1444.8182   -591.16463   -178.50362   -1564.1332     6306.231    3454.0526 
  150000    4561.3294    308.98958    414.18786    313.15334   -762.01437   -448.86103    -421.3083   -95.778473    4864.5879   -1682.8394     108.3199    190.65713    621.84798            0    920.82501   -6451.6488   -48.271156      16.5843      16.5843      16.5843            0            0            0    -3495.442    -3438.045   -3852.9784    4588.8841    2825.1206   -6171.4412 
  151000    4561.3294    299.23636   -1232.9001    303.26869   -791.71746   -488.44877   -570.46413    -72.90691    4865.3622   -1663.2908      96.2467    152.74448     622.5822            0    871.57339   -6455.7461   -48.271156      16.5843      16.5843      16.5843            0            0            0    977.94382   -960.47806   -5327.3812   -2144.2499   -7162.2533     5607.803 
  152000    4561.3294    303.64681   -2144.3753    307.73858    -762.1028   -454.36423   -597.01303   -84.481676    4880.9074   -1651.7056    119.00224      152.851    617.74955            0    889.60278   -6448.1313   -48.271156      16.5843      16.5843      16.5843            0            0            0    649.56651   -1389.1781   -1632.3381   -2185.7907   -179.92802   -4067.4072 
  153000    4561.3294     289.0187     1527.304    292.91334   -776.45267   -483.53933   -381.93954   -80.527921    4874.6585   -1664.3344    110.14434    168.58671     609.1507            0    887.88176    -6458.465   -48.271156      16.5843      16.5843      16.5843            0            0            0   -181.81138   -1386.5817    -826.2536     6403.062    -611.4834   -1209.6667 
  154000    4561.3294    296.25339    1015.8482    300.24552   -768.83963   -468.59411   -401.01754   -81.838544     4902.441   -1632.8971    100.89255    143.01055    620.15437            0    864.05748   -6453.4996   -48.271156      16.5843      16.5843      16.5843            0            0            0   -1447.6385    1842.1573   -1159.0125    1408.5123   -3812.0145    5451.0468 
  155000    4561.3294    296.69919    -1972.338    300.69734     -758.397   -457.69967   -588.90415   -80.068962    4893.1029   -1639.3467    96.616039    164.66899    619.66468            0    880.94972   -6452.3806   -48.271156      16.5843      16.5843      16.5843            0            0            0   -1773.5666   -498.43805    2113.1761   -2119.3044   -3258.0186   -539.69101 
  156000    4561.3294    318.94525    -3813.405    323.24317    -775.4015   -452.15833   -705.83484   -74.288215    4869.9769   -1658.0336    105.59841    159.79355    617.24009            0    882.63206   -6453.7223   -48.271156      16.5843      16.5843      16.5843            0            0            0    4300.0694    1134.8901   -4056.7636    -3834.139   -9273.3134    1667.2373 
  157000    4561.3294    292.21011    2213.5771    296.14776   -778.63074   -482.48298   -335.23072    -71.49467    4872.2766   -1655.8989      93.3431    160.72298    623.20202            0    877.26811   -6456.6808   -48.271156      16.5843      16.5843      16.5843            0            0            0   -499.92025     4962.032   -2220.8589    6190.7834   -3296.7976    3746.7456 
  158000    4561.3294    304.82216    -1168.923    308.92977   -777.31946   -468.38969   -546.14915    -51.13037    4847.7214   -1659.0848    108.46167    154.65289    618.65075            0    881.76531   -6455.6758   -48.271156      16.5843      16.5843      16.5843            0            0            0   -2834.7076    730.67956    2929.2246   -2784.8026   -4010.7214    3288.7549 
  159000    4561.3294    288.23848   -703.17517    292.12262   -791.11421   -498.99159   -545.76843   -92.243121    4876.0643   -1670.9103    98.563399    156.87931    624.35336            0    879.79607   -6454.7314   -48.271156      16.5843      16.5843      16.5843            0            0            0   -2307.3033    2119.3393    2924.4151    845.06257   -3551.5462    596.95808 
  160000    4561.3294    321.80053   -1642.1252    326.13693   -769.17304   -443.03611   -552.27407   -79.182747    4884.2774   -1650.8583    98.885422    166.39897    616.40091            0     881.6853    -6455.953   -48.271156      16.5843      16.5843      16.5843            0            0            0   -4460.3049    1534.3479    -4485.894    867.83207    1731.6779   -7525.8856 
  161000    4561.3294    284.80169    527.35847    288.63951   -774.91512   -486.27561   -451.19451   -50.878185    4843.7143   -1659.7887     103.8018    166.33153    614.74028            0    884.87361   -6452.6248   -48.271156      16.5843      16.5843      16.5843            0            0            0    2713.7251   -492.73758    782.80972    538.63229    3109.9557   -2066.5126 
  162000    4561.3294    310.83777   -560.30869    315.02644   -779.02632   -463.99988   -501.27291   -87.152808    4888.8121   -1651.2785    101.46059    153.68016    617.11146            0    872.25221   -6452.9378   -48.271156      16.5843      16.5843      16.5843            0            0            0   -3861.5223    370.12987   -62.281529    3378.9297    2867.4011   -7927.2569 
  163000    4561.3294    292.02582   -1441.6895    295.96099    -792.9991   -497.03811   -592.94262   -85.303122    4871.5203   -1666.1864    103.36165    151.74907    618.07659            0    873.18731   -6452.4035   -48.271156      16.5843      16.5843      16.5843            0            0            0   -2882.4618   -557.55252    1799.4073    -681.5478   -2054.1341   -1589.3867 
  164000    4561.3294     295.7486    1201.3381    299.73393   -774.27169   -474.53776   -394.62198   -85.408749    4892.9033   -1644.5286    101.94667     150.3377    617.97254            0    870.25692   -6452.0231   -48.271156      16.5843      16.5843      16.5843            0            0            0    754.77549    1224.9873    -809.9395    -2151.664    72.788807    5682.8893 
  165000    4561.3294    291.84459   -786.31842    295.77732    -776.4248   -480.64749   -532.95521   -81.454811     4889.621   -1649.4894    95.622872    161.78393    615.65782            0    873.06462   -6457.6556   -48.271156      16.5843      16.5843      16.5843            0            0            0     1337.432     368.3852   -71.403073   -3725.2818    967.71949    398.60706 
  166000    4561.3294    290.01244    224.52791    293.92047   -769.64432   -475.72384   -460.78773   -88.121406     4892.414   -1652.1875    98.992056    169.60347    613.94767            0     882.5432   -6456.4802   -48.271156      16.5843      16.5843      16.5843            0            0            0    1533.9517    -457.5206    2482.3365   -1656.8673    2694.5379   -364.08688 
  167000    4561.3294    294.58028   -599.04749    298.54987   -788.91381   -490.36394   -530.21396   -76.855228     4873.416   -1661.9063    84.014307    164.85007    624.12816            0    872.99253   -6458.4671   -48.271156      16.5843      16.5843      16.5843            0            0            0   -256.24766   -2076.7042   -1760.3229    715.02255   -1905.7804    -606.3846 
  168000    4561.3294    291.20335    3668.0302    295.12744   -739.16275   -444.03531   -200.02947    -89.11214    4904.9412    -1634.712    99.203295    180.64299    615.70294            0    895.54922    -6450.541   -48.271156      16.5843      16.5843      16.5843            0            0            0    2248.2617    2143.1427   -2991.9365    2860.6594   -873.92473     9017.356 
  169000    4561.3294    312.59384   -1669.7973    316.80617   -778.88789   -462.08172   -573.16049   -97.355316    4912.2799   -1640.7104    94.239638    144.26874    623.31418            0    861.82256   -6455.6351   -48.271156      16.5843      16.5843      16.5843            0            0            0   -200.52145    2750.9519   -2021.1644    -2504.644   -3849.9816    1345.2337 
  170000    4561.3294    310.29485   -2154.4203    314.47621   -745.99236   -431.51616   -574.83318   -94.083159      4913.45   -1634.7574    104.76715    162.64516    621.35273            0    888.76504   -6454.1243   -48.271156      16.5843      16.5843      16.5843            0            0            0    1426.4909    1175.1125    145.25772   -5487.4325   -999.50927    23.680757 
  171000    4561.3294    279.53055   -2381.2484    283.29734   -764.82168   -481.52434   -639.93049   -86.688211    4872.5263   -1667.8603    107.29028     175.8414    619.90697            0    903.03865   -6453.6985   -48.271156      16.5843      16.5843      16.5843            0            0            0    3189.1148    5145.3104   -952.05805   -4104.8493   -308.77995   -2730.1161 
  172000    4561.3294    295.56267    3353.3904     299.5455   -773.93104   -474.38555   -251.31027   -80.469293    4902.1086   -1633.2885    94.085742    143.69808    621.57368            0    859.35749   -6454.9279   -48.271156      16.5843      16.5843      16.5843            0            0            0    1196.1748     1070.156   -16.011836    2171.3487   -196.70058    8085.5231 
  173000    4561.3294    272.05518   -3419.7411    275.72124   -791.49017   -515.76893   -743.25801   -96.999421    4879.5633   -1667.9975    100.87647    161.12955    614.50136            0    876.50737   -6450.5614   -48.271156      16.5843      16.5843      16.5843            0            0            0    283.55195   -3218.7438   -131.35663   -3488.6297   -2761.1391   -4009.4546 
  174000    4561.3294    319.03481     579.6376    323.33394   -796.52031   -473.18638   -434.62755   -101.16797    4901.4115   -1654.2027    99.274625    143.63181     614.7759            0    857.68234   -6454.4462   -48.271156      16.5843      16.5843      16.5843            0            0            0   -581.65381    1419.8298   -4020.9457    1265.6318   -1688.2456    2161.5266 
  175000    4561.3294    299.43564    753.91004    303.47066   -764.33205   -460.86139   -410.70955   -81.195173    4890.1219   -1645.3199    96.019991    169.32054    615.64731            0    880.98784   -6454.2466   -48.271156      16.5843      16.5843      16.5843            0            0            0   -576.90438   -491.24732    -2794.504    1060.1294   -1694.3229    2895.9237 
  176000    4561.3294    301.63355    4088.2176    305.69818   -769.05246   -463.35427   -191.39659   -75.352403    4889.5643   -1638.3635     101.2821    150.74534    617.28359            0    869.31103   -6452.5754   -48.271156      16.5843      16.5843      16.5843            0            0            0   -831.53346    792.34541    2857.5097      1614.14    4732.9043    5917.6084 
  177000    4561.3294    284.01354   -2458.5024    287.84074   -786.25826   -498.41752   -661.96278   -75.981698    4889.4245   -1642.2809    90.154266    153.10562    612.76275            0    856.02263   -6455.7237   -48.271156      16.5843      16.5843      16.5843            0            0            0    3006.1497   -1882.8612   -677.36048   -6501.5776   -536.58949   -337.34006 
  178000    4561.3294    296.16434   -4566.6738    300.15527   -762.35892   -462.20365   -765.98934   -95.822317    4897.3407   -1654.9808    102.96772    174.28584    615.36827            0    892.62184   -6456.4992   -48.271156      16.5843      16.5843      16.5843            0            0            0    2575.8273    1949.4584   -1304.2123   -1020.5444    -8884.027   -3795.4499 
  179000    4561.3294    301.53103    2881.5322    305.59429    -786.7301   -481.13582   -289.44964   -54.751384    4868.3376   -1645.7056    97.788395    146.44986     614.7372            0    858.97545   -6459.2918   -48.271156      16.5843      16.5843      16.5843            0            0            0    801.54033    1671.9584    806.39063    745.16709    3280.0433    4619.3862 
  180000    4561.3294    291.64111    145.13947     295.5711   -784.20345   -488.63235   -478.97734   -68.996297    4885.4409   -1642.0659    97.615866    150.41093    609.83569            0    857.86249   -6458.5105   -48.271156      16.5843      16.5843      16.5843            0            0            0   -2794.1337    166.92245    2052.3178    1250.3628    3675.8935    -4490.838 
  181000    4561.3294    291.46836   -852.29388    295.39602   -749.01624   -453.62022   -510.31678   -82.312977    4908.7484    -1620.501    103.59059    157.37348    610.52067            0    871.48474   -6446.9364   -48.271156      16.5843      16.5843      16.5843            0            0            0     521.9278    1140.0643    2506.2412   -3983.2296    830.74728    595.60069 
  182000    4561.3294    285.92199   -2387.6367     289.7749   -759.82737   -470.05246   -628.88357   -90.536942    4913.9173   -1633.4146    106.79127    153.76056    613.03542            0    873.58726    -6456.795   -48.271156      16.5843      16.5843      16.5843            0            0            0    1741.6117    547.79829    2898.2439   -497.88653   -3914.8672   -2750.1564 
  183000    4561.3294    310.68958     -1893.13    314.87625   -776.44348   -461.56724   -587.50262   -74.657684    4893.3559   -1639.2173    92.757219    154.34472    615.67188            0    862.77382   -6457.9155   -48.271156      16.5843      16.5843      16.5843            0            0            0    3206.2353   -1573.1684     2248.978   -2192.3528   -1949.4775   -1537.5598 
  184000    4561.3294    317.03688    2507.2033    321.30909    -781.4419   -460.13281   -293.34785   -85.072435    4901.7276   -1639.7597    97.382597    148.36977    612.56541            0    858.31777   -6456.4148   -48.271156      16.5843      16.5843      16.5843            0            0            0   -1110.1823    3704.3529   -4515.8577    1428.1174    8067.5672   -1974.0746 
  185000    4561.3294    313.24235    912.22481    317.46342   -786.46019   -468.99676   -408.31346   -99.705971    4902.6256   -1652.1032    96.337125    151.82341    617.48245            0    865.64299   -6455.0228   -48.271156      16.5843      16.5843      16.5843            0            0            0   -1335.4598   -3828.8572    101.65554    244.19937   -651.41203    3143.8871 
  186000    4561.3294    283.76107   -581.93631    287.58487   -790.64772   -503.06285    -541.7746   -73.956358    4870.5534    -1658.332    101.41779    150.25672    616.00978            0    867.68429   -6454.9291   -48.271156      16.5843      16.5843      16.5843            0            0            0   -2833.0368   -1067.9565   -3445.3245   -224.02171     2507.303   -4029.0902 
  187000    4561.3294    274.59418    1897.6546    278.29445   -761.68328   -483.38883   -357.15246   -79.492521    4879.4452   -1652.6821    108.15896    170.69083      612.149            0    890.99878   -6452.6348   -48.271156      16.5843      16.5843      16.5843            0            0            0    283.53527   -1055.4777   -3392.7381   -437.11275     1774.636    4355.4405 
  188000    4561.3294    272.87092    350.45918    276.54797    -768.6316   -492.08363   -468.77028   -97.176928    4887.5887   -1663.5843    113.00209    154.50084    627.44976            0    894.95269    -6453.996   -48.271156      16.5843      16.5843      16.5843            0            0            0    236.58308    1425.8186   -3806.3386    -1662.347    3960.7189   -1246.9943 
  189000    4561.3294    300.36594   -1847.7399    304.41349   -760.67359   -456.26009   -579.17602   -100.15143    4914.2879   -1639.0475    96.624517    165.05424    616.69517            0    878.37393    -6453.184   -48.271156      16.5843      16.5843      16.5843            0            0            0   -176.37325    -2289.482   -4073.9342    -7189.122      1307.81    338.09226 
  190000    4561.3294    287.21071   -2179.4318      291.081   -774.95136   -483.87036    -628.8512   -107.72703    4911.3038   -1647.2037    114.36686    144.81006    613.07544            0    872.25235   -6450.7805   -48.271156      16.5843      16.5843      16.5843            0            0            0    99.495858   -1973.6389   -3422.7064    1080.4188   -4804.1304   -2814.5839 
  191000    4561.3294     302.4794   -4648.4566    306.55543   -769.19045   -462.63502   -771.86109   -87.336167    4888.6871   -1651.9335    114.71282    149.09671    618.93354            0    882.74307   -6453.2844   -48.271156      16.5843      16.5843      16.5843            0            0            0   -2769.2791   -480.57745   -1587.4936   -187.86383   -3235.6001   -10521.906 
  192000    4561.3294    301.48653    5244.3798    305.54918   -781.47048    -475.9213   -127.05303   -87.758368    4917.6017    -1624.099    85.708676    140.49359    616.42624            0     842.6285   -6453.9424   -48.271156      16.5843      16.5843      16.5843            0            0            0    2871.2191    1886.3767   -4954.2385    3679.6839    4308.2953    7745.1603 
  193000    4561.3294    314.07883   -1131.0508    318.31117   -777.48776   -459.17659    -534.4167   -96.921434    4903.9098   -1649.6174    97.298492    160.39774    614.43343            0    872.12966   -6456.6058   -48.271156      16.5843      16.5843      16.5843            0            0            0    -3960.643    1238.9992    1629.9357   -4186.1456    1075.4374   -282.44416 
  194000    4561.3294    306.22448    44.711083    310.35098   -750.22002   -439.86904   -436.89475   -80.269429    4901.5662   -1633.8707    98.349675    161.67613    623.62492            0    883.65072   -6455.1675   -48.271156      16.5843      16.5843      16.5843            0            0            0    1249.6733    6786.3037    3627.4269    2203.2022   -4073.9034    2004.8345 
  195000    4561.3294    295.39981    -3479.788    299.38044   -758.53324   -459.15279   -690.63633   -102.07516    4911.5263   -1641.9435    106.87556    164.06857    612.46611            0    883.41024   -6451.3946   -48.271156      16.5843      16.5843      16.5843            0            0            0   -1402.2201    2746.5111    844.70172   -4320.4282   -5218.3848   -900.55105 
  196000    4561.3294    284.63848   -1621.9006     288.4741   -786.80661   -498.33251   -606.22509   -69.650824    4885.1687   -1639.8419    88.096866    145.24836    619.69011            0    853.03534   -6455.3598   -48.271156      16.5843      16.5843      16.5843            0            0            0     3315.392    346.36709    1430.4609    968.42931   -3962.5851   -1871.5461 
  197000    4561.3294    285.72706    2588.3097    289.57735   -777.69373   -488.11637   -315.93603   -88.289843    4883.1787   -1660.6658    97.739854    167.28955    617.94271            0    882.97211   -6455.5547   -48.271156      16.5843      16.5843      16.5843            0            0            0    3489.6811   -741.05006    1460.6929    2343.7585    2200.6401    3220.5306 
[...]
 9955000    4561.3294    310.34371    400.72833    314.52573   -778.32206   -463.79633   -437.13896   -96.792807    4902.5041   -1650.4357    112.62532     141.4047    618.08358            0     872.1136    -6456.147   -48.271156      16.5843      16.5843      16.5843            0            0            0   -2745.3945   -2634.7815    758.32465    1909.0465    1358.9811   -2065.8426 
 9956000    4561.3294    300.79771   -6.7512882    304.85108   -747.45067   -442.59959    -443.0487   -83.164357    4912.5329   -1626.7834    108.42636    149.44121    621.46512            0    879.33269   -6456.1519   -48.271156      16.5843      16.5843      16.5843            0            0            0    8464.3077   -3550.8537    777.03675   -2522.6281    1856.3738     646.0004 
 9957000    4561.3294    297.55418   -1744.7024    301.56384   -788.71835    -487.1545   -603.21613   -88.262378    4888.9049   -1656.6885    98.506518    150.46848    618.99518            0    867.97018   -6457.3311   -48.271156      16.5843      16.5843      16.5843            0            0            0   -3787.2689    951.15081    3660.5972   -224.06804   -3239.1698   -1770.8692 
 9958000    4561.3294    306.85572   -1773.4137    310.99073   -777.98121   -466.99048   -584.96205   -70.119248    4870.3911   -1655.3986    96.420875    162.59402    618.40252            0    877.41741   -6455.6705   -48.271156      16.5843      16.5843      16.5843            0            0            0   -799.28506   -298.51027   -1967.8662   -6673.9076   -3231.5904    4585.2569 
 9959000    4561.3294     309.1163   -751.26226    313.28177   -773.49827    -460.2165    -510.1922   -84.203186    4909.4532   -1630.2654    91.680388    151.06517    614.02157            0    856.76713   -6455.5155   -48.271156      16.5843      16.5843      16.5843            0            0            0    2579.8284   -1076.3023    704.19523   -1401.7756   -2482.5632     1630.552 
 9960000    4561.3294    285.78552   -1100.0374     289.6366   -749.60874   -459.97215   -533.14918   -95.321971    4922.2063   -1628.9179    99.932007    158.61084    620.76634            0    879.30919   -6455.8023   -48.271156      16.5843      16.5843      16.5843            0            0            0   -893.66649    -1173.807    5027.2124    3485.9645   -5686.4669   -1099.6099 
 9961000    4561.3294    292.39128   -194.41263    296.33138    -760.3784   -464.04702    -476.9798    -93.38255    4896.9728   -1649.6004    99.641889     173.4417    616.13844            0    889.22203   -6453.1907   -48.271156      16.5843      16.5843      16.5843            0            0            0   -51.783284    1740.3662   -1124.7144    133.78457    -1237.262    520.23952 
 9962000    4561.3294     306.6213   -1779.7974    310.75315   -756.62176   -445.86861   -564.26484   -92.709537     4920.124   -1628.2486    96.694866    152.34032    622.59162            0    871.62681    -6455.663   -48.271156      16.5843      16.5843      16.5843            0            0            0    2692.7563   -430.46189   -1335.1644   -1091.5703   -4903.7683    655.94632 
 9963000    4561.3294    308.46134   -2960.7856    312.61798   -790.24127   -477.62328   -674.58158   -71.339459    4860.9543   -1663.5555    105.92368    149.03837    618.35216            0    873.31421   -6453.1703   -48.271156      16.5843      16.5843      16.5843            0            0            0   -268.12417   -1134.4081    1831.6652   -301.53012   -2500.8019   -6080.0247 
 9964000    4561.3294      325.233     4951.997    329.61565   -734.90639   -405.29074   -75.872462    -79.41627    4915.5907   -1616.7781    100.98594    164.43664    616.44914            0    881.87172   -6452.9526   -48.271156      16.5843      16.5843      16.5843            0            0            0    1452.2575   -2118.0307    1667.8027     1795.187     10207.66    2853.1443 
 9965000    4561.3294    334.70213    1375.5305    339.21238   -768.56347   -429.35109   -337.84762   -82.510814    4888.3119   -1647.1812    95.192923    152.35544    631.06938            0    878.61774   -6452.9823   -48.271156      16.5843      16.5843      16.5843            0            0            0   -1063.3809   -3028.7702    2353.0814    1133.1419   -1173.1231    4166.5728 
 9966000    4561.3294    314.32233   -1965.5536    318.55795    -777.6577   -459.09975   -589.85291   -106.71826    4896.1564   -1661.3823    102.11851     156.7904    624.81566            0    883.72456   -6450.8204   -48.271156      16.5843      16.5843      16.5843            0            0            0   -1029.6072    1903.9255   -1374.4733   -1735.6529    2959.8035   -7120.8114 
 9967000    4561.3294    305.13108   -182.62407    309.24285   -756.84078   -447.59792    -459.7465   -79.889993    4907.4957   -1624.1723    100.81604    147.56236    618.95312            0    867.33152   -6451.7781   -48.271156      16.5843      16.5843      16.5843            0            0            0    5426.3867   -1386.2754    2054.7743   -8340.3307    2135.7219    5656.7366 
 9968000    4561.3294    272.46118   -3839.5902    276.13271   -770.68073   -494.54802   -749.96643   -94.067844    4908.2275   -1637.7082    101.98006    146.44953    618.59784            0    867.02744   -6451.8678   -48.271156      16.5843      16.5843      16.5843            0            0            0     2195.152   -2730.5079    979.07536   -9009.0545   -3109.6576    599.94161 
 9969000    4561.3294    327.22927    112.35935    331.63882   -767.08846   -435.44964   -427.97524   -82.866512    4880.2563   -1656.7272    93.876546    173.68001    622.08217            0    889.63872    -6454.117   -48.271156      16.5843      16.5843      16.5843            0            0            0    1042.8981    2134.4162    1325.6568    898.57052     4028.429   -4589.9215 
 9970000    4561.3294    282.27217   -2724.0032    286.07591   -766.84823   -480.77232   -661.97931   -50.246908    4827.5573   -1675.2673    104.64021    179.67058    624.10832            0    908.41911   -6452.5777   -48.271156      16.5843      16.5843      16.5843            0            0            0    858.00807    463.01994   -2095.0083    524.10346   -1868.5244   -6827.5887 
 9971000    4561.3294    307.10461    446.07686    311.24298   -763.06298      -451.82   -422.14594   -74.576105    4874.8262    -1652.602    109.15007    154.74133    625.64761            0    889.53901    -6452.852   -48.271156      16.5843      16.5843      16.5843            0            0            0    658.09906    297.69699     563.4341   -2484.2633    5901.1234   -2078.6295 
 9972000    4561.3294    305.83232    -1573.768    309.95354    -777.2596   -467.30607   -571.99675   -66.777497    4865.2977   -1658.2329    95.737397    168.46243    616.77342            0    880.97325   -6456.7531   -48.271156      16.5843      16.5843      16.5843            0            0            0   -1122.1092   -2396.9377   -332.53516    298.01007   -2315.5083   -2703.8057 
 9973000    4561.3294    289.24751    2244.4742    293.14525    -773.8532   -480.70796   -331.40035   -75.278156    4882.2311   -1646.1268     92.13305    161.96168    618.17891            0    872.27364   -6453.0798   -48.271156      16.5843      16.5843      16.5843            0            0            0     733.9535   -2050.6409   -183.35801    3019.7453    473.03781    3240.6394 
 9974000    4561.3294    309.32611   -5235.7977    313.49441   -770.96643   -457.47202   -805.76938   -88.488505    4867.2774   -1677.9284    120.50495    171.72708    614.72996            0    906.96199   -6456.7174   -48.271156      16.5843      16.5843      16.5843            0            0            0   -3137.7358   -1360.6116   -3520.9576   -9450.7378   -5635.5555   -621.09964 
 9975000    4561.3294    266.13177    -5909.283      269.718    -783.9028    -514.1848   -907.28396   -85.923635    4887.4325   -1655.1645    108.83864    146.57422    615.84882            0    871.26168   -6456.6734   -48.271156      16.5843      16.5843      16.5843            0            0            0     2433.533   -365.99351   -3575.7534   -5811.4815   -10087.114   -1829.2537 
 9976000    4561.3294    286.97033   -1942.8744    290.83738   -744.01991   -453.18254   -582.42703   -62.135019    4887.5112    -1628.447    116.45952    150.33483    617.63276            0     884.4271   -6453.8232   -48.271156      16.5843      16.5843      16.5843            0            0            0    1519.5969   -389.62389    2877.4364    736.96113   -995.71264   -5569.8718 
 9977000    4561.3294    302.66537   -2214.8638    306.74391   -784.97878   -478.23487   -625.57273   -84.313015    4876.2526    -1664.443    100.80749    158.65671    620.00004            0    879.46424   -6456.3826   -48.271156      16.5843      16.5843      16.5843            0            0            0    183.93314   -2201.4308   -5852.1168    1285.5976   -6715.2885   -1214.9006 
 9978000    4561.3294    300.47539   -46.255867    304.52442   -764.36419   -459.83977   -462.91682   -88.085258    4895.4896     -1646.42    92.205975    170.24559    619.60423            0    882.05579   -6453.8243   -48.271156      16.5843      16.5843      16.5843            0            0            0    4626.0934   -1599.0847   -1364.0644    86.419389    4590.0794   -4815.2664 
 9979000    4561.3294    287.03445   -1190.9897    290.90236    -783.6625   -492.76014   -571.98753   -81.509334    4874.8584   -1659.7689    103.91867    151.07097    621.11674            0    876.10638    -6453.118   -48.271156      16.5843      16.5843      16.5843            0            0            0    624.88301    1544.0958     1987.754     -7366.11    2791.5248    1001.6162 
 9980000    4561.3294    307.83304   -2751.2275    311.98122   -771.82312    -459.8419   -642.85991   -96.637968    4917.2017   -1633.6567    93.845574    147.63739    620.35065            0    861.83362   -6454.2205   -48.271156      16.5843      16.5843      16.5843            0            0            0   -4082.7353    1239.8609   -4307.9055   -3687.4125   -4387.9047   -178.36523 
 9981000    4561.3294    292.91542    -1150.818    296.86258   -747.87022   -451.00764   -527.56272   -92.456879    4917.8924    -1630.998     112.2577    157.99673    612.87334            0    883.12777   -6456.4335   -48.271156      16.5843      16.5843      16.5843            0            0            0    1252.7246    2362.5143    2163.0138   -234.52534   -3272.1453    54.216605 
 9982000    4561.3294    274.59768   -685.56095    278.29799   -759.76888   -481.47089   -527.07599   -73.194982    4890.7614   -1634.0622    104.78697    149.89634    619.60997            0    874.29328   -6451.6286   -48.271156      16.5843      16.5843      16.5843            0            0            0   -1381.4105     1404.697   -6079.3659   -1741.5076    4492.4685   -4807.6437 
 9983000    4561.3294    322.49448    671.12683    326.84023   -771.24069   -444.40047   -399.75556   -80.535555    4889.3536    -1647.271    111.49929     149.4781    615.05288            0    876.03027    -6456.089   -48.271156      16.5843      16.5843      16.5843            0            0            0   -1397.3781     -3889.68    965.10913   -33.713627    3721.2939   -1674.1998 
 9984000    4561.3294    298.85561    3178.1761    302.88281   -738.68966   -435.80684   -224.38722    -91.41543    4929.1679   -1617.8017    96.585285    163.33007    619.19673            0    879.11208   -6455.5542   -48.271156      16.5843      16.5843      16.5843            0            0            0   -439.21701    1895.3605   -868.41597    603.73305    2342.8266    6587.9687 
 9985000    4561.3294    312.22807    769.83316    316.43547   -751.03852   -434.60305   -383.39197   -80.812636    4901.5969   -1635.8941    94.265475    166.83825    623.75183            0    884.85555   -6456.6783   -48.271156      16.5843      16.5843      16.5843            0            0            0    395.75824   -927.62648   -539.83341   -1116.6367    89.344517    3336.7916 
 9986000    4561.3294      297.774   -875.93751    301.78663   -790.53629   -488.74966   -547.01904   -120.39243    4930.9203   -1646.6224    90.588748     142.0248    623.47252            0    856.08606   -6457.1502   -48.271156      16.5843      16.5843      16.5843            0            0            0    634.03923    2908.0558   -1744.7457    4709.2039   -3508.8626   -3828.1538 
 9987000    4561.3294    296.48355   -273.06373    300.47879   -730.26654   -429.78775   -447.95258   -69.032828    4892.8474   -1630.3492     121.6834    157.38766    621.01157            0    900.08263   -6454.1637   -48.271156      16.5843      16.5843      16.5843            0            0            0    2971.2997    538.53517    1510.5264   -7219.6646    6951.5827   -551.10926 
 9988000    4561.3294    274.77667     1784.865     278.4794   -744.05185   -465.57245   -346.83911   -70.242517    4894.7664    -1631.468    106.20495    160.05315    621.15806            0    887.41617   -6455.9919   -48.271156      16.5843      16.5843      16.5843            0            0            0    1839.0207   -1851.3749    730.58894    5655.0697   -1978.3198    1677.8451 
 9989000    4561.3294    289.68055   -1663.8817    293.58412   -772.60782   -479.02371   -589.70896   -76.243324    4872.4497   -1664.5732    99.896893    172.40867    619.65979            0    891.96535   -6460.7796   -48.271156      16.5843      16.5843      16.5843            0            0            0    3499.3318   -3975.9563    1731.9213   -1944.7419    6700.5141   -9747.4172 
 9990000    4561.3294    317.61885    3807.2801     321.8989   -752.12079    -430.2219   -176.95282   -61.109676    4895.5533    -1622.817    94.322173    152.82984    623.54421            0    870.69622   -6457.2606   -48.271156      16.5843      16.5843      16.5843            0            0            0   -853.19069    529.32885   -2796.3524    3344.9116    3679.1171    4397.8118 
 9991000    4561.3294    281.74637    2894.9542    285.54302   -766.44755   -480.90453   -288.32548    -67.17328    4892.8307    -1630.383    90.746159    150.45787    622.73142            0    863.93545   -6456.0404   -48.271156      16.5843      16.5843      16.5843            0            0            0   -1732.1418    3266.1917    914.72438   -811.85108    5932.1102    3564.6036 
 9992000    4561.3294    286.42627    1723.6592    290.28599   -760.75211   -470.46613   -355.80434   -92.101207    4916.5438   -1626.7238    91.437598    149.44281    625.09127            0    865.97168   -6451.1664   -48.271156      16.5843      16.5843      16.5843            0            0            0    2835.0768   -5876.8493    4959.8501    1484.2455    2851.7377    834.99424 
 9993000    4561.3294    264.82725    417.95275    268.39591   -769.50872   -501.11282   -473.30963   -70.611299    4854.6846   -1674.1236    112.34892    169.98007    622.28592            0    904.61491   -6458.1969   -48.271156      16.5843      16.5843      16.5843            0            0            0   -230.92254    -1696.879    -1283.828   -3854.4699   -1173.9512    6282.2793 
 9994000    4561.3294    308.17292    1301.9284    312.32567   -762.27854   -449.95286   -363.34558   -75.635216    4869.5612   -1658.2882    96.713474    171.44919    627.84703            0     896.0097   -6452.2143   -48.271156      16.5843      16.5843      16.5843            0            0            0   -31.085652    2591.8219   -3524.6602    2048.1849     450.9509    1406.6493 
 9995000    4561.3294    278.17938    8251.3318    281.92796   -795.20688   -513.27892    35.618736   -68.030795    4854.6218    -1665.534    96.873941    145.78976    627.66337            0    870.32707    -6452.125   -48.271156      16.5843      16.5843      16.5843            0            0            0    3904.8019    2207.6418    613.29083     11954.56    4119.3546    8680.0805 
 9996000    4561.3294    302.83918    2646.6604    306.92007   -774.29466   -467.37459   -291.31263   -89.421092    4883.5455   -1663.6426    104.64226     153.0648    631.64092            0    889.34798    -6457.767   -48.271156      16.5843      16.5843      16.5843            0            0            0    998.07477    2157.9011   -453.93923    2970.9035    4207.7222    761.35535 
 9997000    4561.3294    280.40576   -4582.1152    284.18435   -765.17072   -480.98637   -785.79926   -94.189101    4921.1541   -1627.4439    93.296211    154.44514    614.53187            0    862.27322   -6454.4089   -48.271156      16.5843      16.5843      16.5843            0            0            0    1513.5349   -263.40268    1267.8283    -10602.36   -2639.8631   -504.12227 
 9998000    4561.3294    289.30666   -83.700894    293.20519   -741.09372   -447.88853   -453.45651   -93.982673    4906.9159    -1643.969    121.79416    167.28812    613.79297            0    902.87525   -6456.9022   -48.271156      16.5843      16.5843      16.5843            0            0            0   -2403.7944    890.99886   -908.89382   -4208.4586    3402.9629    554.39306 
 9999000    4561.3294    294.98086   -255.72813    298.95585   -773.86879   -474.91294   -491.92456   -89.967171    4910.2895   -1638.7508    101.98321    142.04663    620.85212            0    864.88197   -6459.0731   -48.271156      16.5843      16.5843      16.5843            0            0            0    3179.6285   -1737.3338    1851.7971    892.76105   -254.93182   -1405.0136 
10000000    4561.3294     303.1441   -3696.2974    307.22909   -782.10666   -474.87757   -720.76382   -90.984883    4894.6328   -1650.1873    91.585029    152.98824    623.50734            0    868.08061   -6453.8352   -48.271156      16.5843      16.5843      16.5843            0            0            0    2897.6169    5058.0145    1756.9701   -4531.4209   -3450.7333    -3106.738 
Loop time of 5597.58 on 4 procs for 10000000 steps with 341 atoms

Performance: 154.352 ns/day, 0.155 hours/ns, 1786.486 timesteps/s
92.6% CPU use with 4 MPI tasks x 1 OpenMP threads

MPI task timing breakdown:
Section |  min time  |  avg time  |  max time  |%varavg| %total
---------------------------------------------------------------
Pair    | 1562.7     | 1667       | 1818.5     | 260.8 | 29.78
Bond    | 160.72     | 180.65     | 189.54     |  87.0 |  3.23
Kspace  | 2565.9     | 2717.3     | 2851.6     | 219.6 | 48.54
Neigh   | 159.69     | 159.82     | 159.98     |   0.9 |  2.86
Comm    | 725.63     | 737.76     | 751.45     |  36.8 | 13.18
Output  | 3.4772     | 3.5322     | 3.6858     |   4.7 |  0.06
Modify  | 43.28      | 48.832     | 54.027     |  68.4 |  0.87
Other   |            | 82.71      |            |       |  1.48

Nlocal:    85.25 ave 86 max 84 min
Histogram: 1 0 0 0 0 1 0 0 0 2
Nghost:    1666.5 ave 1683 max 1650 min
Histogram: 1 1 0 0 0 0 0 0 1 1
Neighs:    9708.75 ave 10663 max 8747 min
Histogram: 1 0 0 1 0 0 1 0 0 1

Total # of neighbors = 38835
Ave neighs/atom = 113.886
Ave special neighs/atom = 5.85924
Neighbor list builds = 334688
Dangerous builds = 0


write_restart   restart.${NAME}
write_restart   restart.mol
PPPM initialization ...
  using 12-bit tables for long-range coulomb (src/kspace.cpp:332)
  G vector (1/distance) = 0.374366
  grid = 12 12 12
  stencil order = 5
  estimated absolute RMS force accuracy = 0.0274815
  estimated relative force accuracy = 8.27598e-05
  using double precision KISS FFT
  3d grid and FFT values/proc = 3211 432
write_data	data.*
PPPM initialization ...
  using 12-bit tables for long-range coulomb (src/kspace.cpp:332)
  G vector (1/distance) = 0.374366
  grid = 12 12 12
  stencil order = 5
  estimated absolute RMS force accuracy = 0.0274815
  estimated relative force accuracy = 8.27598e-05
  using double precision KISS FFT
  3d grid and FFT values/proc = 3211 432
Total wall time: 1:33:18
