LAMMPS data file
# 9 LI molecules
# 9 TF2 molecules
# 50 wat molecules

8 atom types
5 bond types
8 angle types
6 dihedral types

294 atoms
226 bonds
275 angles
270 dihedrals

    0.0000   15.7932 xlo xhi
    0.0000   15.7932 ylo yhi
    0.0000   15.7932 zlo zhi

Masses

1    6.941  # li LI
2   16.000  # o TF2
3   19.000  # f TF2
4   12.010  # c3 TF2
5   32.060  # sy TF2
6   14.010  # ne TF2
7   16.000  # oh wat
8    1.008  # ho wat

Pair Coeffs

1 0.0182660800896 2.126  # li LI
2 0.209859347635 2.960  # o TF2
3 0.0609584251392 3.118  # f TF2
4 0.10932640151 3.400  # c3 TF2
5 0.249833029536 3.564  # sy TF2
6 0.169885665734 3.250  # ne TF2
7 0.155323242893 3.165  # oh wat
8 0.0 0.000  # ho wat

Bond Coeffs

1 492.669820742  1.466  # harmonic TF2 o sy
2 363.556158739  1.344  # harmonic TF2 c3 f
3 248.732854675  1.782  # harmonic TF2 c3 sy
4 256.928561626  1.752  # harmonic TF2 ne sy
5 529.230180349  1.012  # harmonic wat ho oh

Angle Coeffs

1 41.2525855296  108.48  # harmonic TF2 c3 sy o
2 45.2700110592  121.88  # harmonic TF2 o sy o
3 43.0716472128  107.06  # harmonic TF2 ne sy o
4 81.1647052992  109.67  # harmonic TF2 f c3 sy
5 71.2114987968  107.16  # harmonic TF2 f c3 f
6 39.3938063424  103.12  # harmonic TF2 c3 sy ne
7 109.646127418  119.18  # harmonic TF2 sy ne sy
8 37.924854457  113.24  # harmonic wat ho oh ho

Dihedral Coeffs

1 0.143896516992  3 0 0.0  # charmm TF2 f c3 sy o
2 0.143896516992  3 0 0.0  # charmm TF2 f c3 sy ne
3 0.499666059072  3 180 0.0  # charmm TF2 sy ne sy o
4 6.79544648813  1 180 0.0  # charmm TF2 sy ne sy o
5 0.499666059072  3 180 0.0  # charmm TF2 sy ne sy c3
6 6.79544648813  1 180 0.0  # charmm TF2 sy ne sy c3

Atoms

     1     1     1        0.8000000000        0.0000000000        0.0000000000        0.0000000000
     2     2     1        0.8000000000       -7.5771500000        6.4763700000        0.0980600000
     3     3     1        0.8000000000       -0.6007800000       -6.2006900000        5.7130600000
     4     4     1        0.8000000000       -1.7450100000        1.6112900000       -1.7207900000
     5     5     1        0.8000000000        4.4186000000       -5.6061900000        7.4847600000
     6     6     1        0.8000000000        7.5846500000       -4.9175900000        4.0677100000
     7     7     1        0.8000000000        0.2070800000        2.2265900000       -4.4322100000
     8     8     1        0.8000000000       -5.1427500000        5.7275700000       -7.8611400000
     9     9     1        0.8000000000       -6.1566500000       -6.5164900000       -1.7733000000
    10    10     2       -0.4610000000       -5.0920500000        3.5672700000        7.1434600000
    11    10     3       -0.1380000000       -3.2350100000        0.2239400000        6.7026600000
    12    10     4        0.3190000000       -3.6442900000        1.3905600000        6.1734600000
    13    10     5        0.9110000000       -4.0777900000        2.5846100000        7.4951600000
    14    10     2       -0.4610000000       -2.8450100000        3.2194000000        8.0468600000
    15    10     3       -0.1380000000       -2.6053300000        1.8016000000        5.4515900000
    16    10     6       -0.5880000000       -4.7106800000        1.7580400000        8.9914600000
    17    10     2       -0.4610000000       -4.6176100000        2.2282800000       11.2618400000
    18    10     3       -0.1380000000       -4.6775500000        1.3108500000        5.3302600000
    19    10     5        0.9110000000       -5.3382500000        2.7714200000       10.1493600000
    20    10     2       -0.4610000000       -5.2399500000        4.2053600000        9.7844600000
    21    10     3       -0.1380000000       -7.5689500000        3.0807900000       11.3379800000
    22    10     3       -0.1380000000       -7.3142500000        1.1267100000       10.5328600000
    23    10     4        0.3190000000       -7.1043500000        2.4651000000       10.2755600000
    24    10     3       -0.1380000000       -7.8646500000        2.7314200000        9.2251600000
    25    11     2       -0.4610000000       -4.8486500000       -6.0210900000        6.4814600000
    26    11     3       -0.1380000000       -3.7765500000       -3.5686900000        7.6676600000
    27    11     4        0.3190000000       -3.8459800000       -3.5524900000        6.3244600000
    28    11     5        0.9110000000       -3.7688900000       -5.2805900000        5.7685600000
    29    11     2       -0.4610000000       -2.4162100000       -5.5312900000        6.1571600000
    30    11     3       -0.1380000000       -4.9881500000       -2.8837900000        5.9568600000
    31    11     6       -0.5880000000       -3.7910400000       -5.2760900000        4.0147200000
    32    11     2       -0.4610000000       -5.1733500000       -7.4371900000        3.5144700000
    33    11     3       -0.1380000000       -2.8405700000       -2.7919900000        5.8341600000
    34    11     5        0.9110000000       -5.2148500000       -6.0176900000        3.2876800000
    35    11     2       -0.4610000000       -6.1447500000       -5.1879900000        4.0563600000
    36    11     3       -0.1380000000       -4.6192300000       -6.6318900000        0.7061100000
    37    11     3       -0.1380000000       -3.9429500000       -4.7267900000        1.3970500000
    38    11     4        0.3190000000       -4.9081500000       -5.6000900000        1.5397800000
    39    11     3       -0.1380000000       -6.0456500000       -5.0167900000        1.1527300000
    40    12     2       -0.4610000000        6.6923500000       -2.7939900000       -0.8412800000
    41    12     3       -0.1380000000        6.5358500000        0.7436300000        0.7561100000
    42    12     4        0.3190000000        6.2071500000       -0.1774400000       -0.1833400000
    43    12     5        0.9110000000        6.6946500000       -1.8712900000        0.2334900000
    44    12     2       -0.4610000000        5.8157500000       -2.2519900000        1.3670100000
    45    12     3       -0.1380000000        4.8858900000       -0.1778100000       -0.2892200000
    46    12     6       -0.5880000000        8.3326500000       -1.7689900000        0.7853300000
    47    12     2       -0.4610000000        7.8868500000       -3.3185900000        2.7267300000
    48    12     3       -0.1380000000        6.7523500000        0.2188100000       -1.3653700000
    49    12     5        0.9110000000        8.6385500000       -2.0627900000        2.4237300000
    50    12     2       -0.4610000000       10.0818500000       -2.2704900000        2.5505600000
    51    12     3       -0.1380000000        8.6801500000        0.5282600000        3.3523600000
    52    12     3       -0.1380000000        8.3363500000       -0.8614800000        4.7679300000
    53    12     4        0.3190000000        8.0822500000       -0.6686300000        3.5234800000
    54    12     3       -0.1380000000        6.7370500000       -0.4825600000        3.4963800000
    55    13     2       -0.4610000000       -0.2097400000       -4.1438900000       -0.2069000000
    56    13     3       -0.1380000000       -0.3232200000       -7.1948900000       -1.4781200000
    57    13     4        0.3190000000       -0.0150400000       -6.1137900000       -2.1474200000
    58    13     5        0.9110000000        0.7121900000       -4.7158900000       -1.1993400000
    59    13     2       -0.4610000000        1.2518100000       -3.8570900000       -2.2066900000
    60    13     3       -0.1380000000        0.8064400000       -6.6569900000       -3.0995800000
    61    13     6       -0.5880000000        1.9751100000       -5.3852900000       -0.2011600000
    62    13     2       -0.4610000000        3.6146400000       -3.4374900000       -0.7643800000
    63    13     3       -0.1380000000       -1.2308700000       -5.8342900000       -2.7606000000
    64    13     5        0.9110000000        3.6336100000       -4.8558900000       -0.3890300000
    65    13     2       -0.4610000000        4.0838400000       -5.0379900000        0.9828400000
    66    13     3       -0.1380000000        4.5520500000       -7.1614900000       -1.1330000000
    67    13     3       -0.1380000000        5.7545500000       -5.5199900000       -1.7739400000
    68    13     4        0.3190000000        4.4828400000       -5.9518900000       -1.5779100000
    69    13     3       -0.1380000000        3.9486200000       -6.0472900000       -2.7359800000
    70    14     2       -0.4610000000       -3.2597900000        6.3473000000       -6.9915400000
    71    14     3       -0.1380000000       -1.5560200000        7.7672300000       -5.0789400000
    72    14     4        0.3190000000       -1.1319700000        7.9489900000       -6.3269400000
    73    14     5        0.9110000000       -1.8703300000        6.5194800000       -7.2623400000
    74    14     2       -0.4610000000       -1.0717400000        5.3549200000       -7.0656400000
    75    14     3       -0.1380000000       -1.5832500000        9.1090100000       -6.8652400000
    76    14     6       -0.5880000000       -1.8239600000        6.9963500000       -8.9185400000
    77    14     2       -0.4610000000       -0.5773300000        7.5871700000      -10.9628300000
    78    14     3       -0.1380000000        0.1981900000        8.0224000000       -6.3767400000
    79    14     5        0.9110000000       -0.5357200000        6.5791800000       -9.8758400000
    80    14     2       -0.4610000000        0.6632300000        6.7564600000       -9.0067400000
    81    14     3       -0.1380000000        0.3173400000        4.4777300000      -11.2125500000
    82    14     3       -0.1380000000       -1.8397700000        4.9541000000      -11.2286500000
    83    14     4        0.3190000000       -0.7458400000        4.8994400000      -10.4618400000
    84    14     3       -0.1380000000       -0.8816000000        3.9719500000       -9.4602400000
    85    15     2       -0.4610000000        2.3158300000        5.7280600000       -4.3500600000
    86    15     3       -0.1380000000        2.0245200000        4.5545300000       -0.6276200000
    87    15     4        0.3190000000        2.3021700000        5.4786100000       -1.5921000000
    88    15     5        0.9110000000        2.3493300000        4.7179700000       -3.2443600000
    89    15     2       -0.4610000000        1.4432200000        3.5815600000       -3.3214900000
    90    15     3       -0.1380000000        1.5313000000        6.6289800000       -1.4224900000
    91    15     6       -0.5880000000        3.9878900000        4.3490600000       -3.6024100000
    92    15     2       -0.4610000000        5.8502500000        3.5111800000       -2.4126000000
    93    15     3       -0.1380000000        3.5044000000        5.9346800000       -1.1980600000
    94    15     5        0.9110000000        4.5671800000        2.9087600000       -2.8631000000
    95    15     2       -0.4610000000        3.5797000000        2.5781800000       -1.8535300000
    96    15     3       -0.1380000000        5.9416500000        1.1874500000       -4.3755500000
    97    15     3       -0.1380000000        4.1670000000        2.0603600000       -5.3267400000
    98    15     4        0.3190000000        4.6922000000        1.6902900000       -4.1665600000
    99    15     3       -0.1380000000        3.9141800000        0.6478600000       -3.7464400000
   100    16     2       -0.4610000000        5.2909500000        7.7864400000        1.5625600000
   101    16     3       -0.1380000000        2.9466600000        7.7867900000        3.9394400000
   102    16     4        0.3190000000        2.9889900000        7.0386800000        2.8236100000
   103    16     5        0.9110000000        4.6252400000        6.7324300000        2.3632700000
   104    16     2       -0.4610000000        4.5420600000        5.3667800000        1.8983800000
   105    16     3       -0.1380000000        2.1748300000        5.9966300000        2.9410700000
   106    16     6       -0.5880000000        5.7185500000        6.6267100000        3.6620800000
   107    16     2       -0.4610000000        5.4378500000        6.1628800000        6.0731600000
   108    16     3       -0.1380000000        2.4559900000        7.7755500000        1.8864800000
   109    16     5        0.9110000000        5.4874500000        5.3350000000        4.8227800000
   110    16     2       -0.4610000000        4.2863300000        4.4910800000        4.7100200000
   111    16     3       -0.1380000000        6.7563500000        3.4570000000        3.7609100000
   112    16     3       -0.1380000000        7.0727500000        3.6099400000        6.0777600000
   113    16     4        0.3190000000        6.9247500000        4.2308200000        4.8472200000
   114    16     3       -0.1380000000        7.9839500000        5.1073100000        4.7156400000
   115    17     2       -0.4610000000        3.8127800000       -0.5553100000        5.6687600000
   116    17     3       -0.1380000000        6.0859500000       -0.0024300000        8.8416600000
   117    17     4        0.3190000000        5.7151500000       -0.6145000000        7.7017600000
   118    17     5        0.9110000000        4.4140700000        0.2720700000        6.6741600000
   119    17     2       -0.4610000000        4.5209500000        1.6887200000        6.2739600000
   120    17     3       -0.1380000000        6.8835500000       -0.7820300000        7.0193600000
   121    17     6       -0.5880000000        3.0839000000        0.5614000000        7.7408600000
   122    17     2       -0.4610000000        2.2501700000       -1.8224900000        7.5764600000
   123    17     3       -0.1380000000        5.3174500000       -1.8718900000        8.0057600000
   124    17     5        0.9110000000        1.7361000000       -0.4856600000        7.7054600000
   125    17     2       -0.4610000000        1.0941400000       -0.1123900000        8.9651600000
   126    17     3       -0.1380000000       -0.1612500000        0.6534000000        6.4296600000
   127    17     3       -0.1380000000       -0.2676200000       -1.4061200000        6.4131600000
   128    17     4        0.3190000000        0.5326800000       -0.3656400000        6.3064600000
   129    17     3       -0.1380000000        1.0009700000       -0.4276200000        5.0774000000
   130    18     2       -0.4610000000       -3.7235300000        5.2741500000        1.9152300000
   131    18     3       -0.1380000000       -0.2661500000        5.5934500000        1.8775600000
   132    18     4        0.3190000000       -1.3175000000        5.8551900000        1.1016200000
   133    18     5        0.9110000000       -2.5817100000        4.6378300000        1.3069600000
   134    18     2       -0.4610000000       -2.0710700000        3.3333600000        1.6988400000
   135    18     3       -0.1380000000       -1.7253700000        7.1261800000        1.4380300000
   136    18     6       -0.5880000000       -3.3251100000        4.1411700000       -0.2231200000
   137    18     2       -0.4610000000       -5.7505500000        4.7408200000       -0.3234800000
   138    18     3       -0.1380000000       -0.9398700000        5.9206900000       -0.2551000000
   139    18     5        0.9110000000       -4.9602500000        3.4930500000       -0.2620400000
   140    18     2       -0.4610000000       -4.7542500000        2.6342900000       -1.3892900000
   141    18     3       -0.1380000000       -6.7660500000        2.0147000000        0.8426300000
   142    18     3       -0.1380000000       -5.4989500000        2.9472500000        2.3175800000
   143    18     4        0.3190000000       -5.5959500000        2.4604100000        1.0843800000
   144    18     3       -0.1380000000       -4.8076500000        1.3947200000        1.1942500000
   145    19     7       -0.8200000000       -1.7094600000        2.1971400000       -3.7392900000
   146    19     8        0.4100000000       -2.5574200000        1.7075200000       -3.9526400000
   147    19     8        0.4100000000       -1.8421300000        3.1932200000       -4.0162500000
   148    20     7       -0.8200000000        3.8660900000        5.5437700000       -6.8506400000
   149    20     8        0.4100000000        3.5190600000        4.9943000000       -7.6811400000
   150    20     8        0.4100000000        3.4511100000        5.0925000000       -6.0082400000
   151    21     7       -0.8200000000        2.9963800000       -1.2995100000        2.8695600000
   152    21     8        0.4100000000        3.4464900000       -1.1025000000        3.6989100000
   153    21     8        0.4100000000        3.4301300000       -0.7738900000        2.1228000000
   154    22     7       -0.8200000000       -6.6117500000        6.4922300000        2.1002600000
   155    22     8        0.4100000000       -5.7215500000        5.9975400000        2.2894900000
   156    22     8        0.4100000000       -6.6483500000        7.2698900000        2.7313400000
   157    23     7       -0.8200000000       -1.7504700000        4.7531500000       -4.0625700000
   158    23     8        0.4100000000       -1.3309600000        4.9551600000       -4.9847400000
   159    23     8        0.4100000000       -2.6903400000        5.2031800000       -4.0130400000
   160    24     7       -0.8200000000       -1.9684100000       -1.8343900000       -3.9348900000
   161    24     8        0.4100000000       -2.8327800000       -1.7202900000       -4.4941500000
   162    24     8        0.4100000000       -1.3161300000       -2.1688900000       -4.6379400000
   163    25     7       -0.8200000000       -7.6918500000       -5.0529900000       -6.2242400000
   164    25     8        0.4100000000       -7.4855500000       -4.0659900000       -6.4643400000
   165    25     8        0.4100000000       -8.3868500000       -5.0703900000       -5.4452400000
   166    26     7       -0.8200000000       -5.5104500000       -7.5595000000       -6.6332400000
   167    26     8        0.4100000000       -5.7085500000       -6.5379900000       -6.7253400000
   168    26     8        0.4100000000       -4.6252200000       -7.8941400000       -6.2843400000
   169    27     7       -0.8200000000       -6.3472500000       -2.4335900000       -3.8396900000
   170    27     8        0.4100000000       -5.9350500000       -1.4731000000       -3.7072300000
   171    27     8        0.4100000000       -6.6813500000       -2.4573900000       -4.7550400000
   172    28     7       -0.8200000000       -4.0509200000       -0.8878900000       -5.8164400000
   173    28     8        0.4100000000       -3.2796200000       -1.1243700000       -6.5276400000
   174    28     8        0.4100000000       -4.3108200000        0.0807900000       -6.0412400000
   175    29     7       -0.8200000000       -3.4314400000        0.3536800000       -2.3594100000
   176    29     8        0.4100000000       -4.0895200000        1.0404900000       -2.6676400000
   177    29     8        0.4100000000       -3.8814600000       -0.1519500000       -1.6316800000
   178    30     7       -0.8200000000       -7.2149500000        6.4025000000       -7.5020400000
   179    30     8        0.4100000000       -8.1077500000        6.4069200000       -7.0828400000
   180    30     8        0.4100000000       -6.5311500000        7.1450500000       -7.1938400000
   181    31     7       -0.8200000000        5.2916500000       -4.2954900000        3.3185400000
   182    31     8        0.4100000000        5.3602500000       -3.4702900000        2.7141800000
   183    31     8        0.4100000000        4.8916800000       -5.0723900000        2.8213200000
   184    32     7       -0.8200000000        6.9957500000        6.2686800000       -3.3764100000
   185    32     8        0.4100000000        6.8596500000        6.4562400000       -4.3563800000
   186    32     8        0.4100000000        6.4558500000        5.5004300000       -2.9472700000
   187    33     7       -0.8200000000        2.0969200000        0.9421900000        0.1932400000
   188    33     8        0.4100000000        2.7457100000        1.0614500000       -0.5964400000
   189    33     8        0.4100000000        2.4330900000        1.3865100000        1.0288100000
   190    34     7       -0.8200000000        3.8002700000       -4.7802900000        5.7496600000
   191    34     8        0.4100000000        3.0472100000       -4.7688900000        5.1547700000
   192    34     8        0.4100000000        4.4983800000       -4.1427900000        5.2528600000
   193    35     7       -0.8200000000       -6.6439500000        7.2808200000       -1.9254500000
   194    35     8        0.4100000000       -5.8419500000        6.9733600000       -2.4904100000
   195    35     8        0.4100000000       -7.5422500000        6.9782400000       -2.3592100000
   196    36     7       -0.8200000000       -4.4657700000       -1.4406200000       -0.4906700000
   197    36     8        0.4100000000       -5.4026500000       -1.3933200000        0.0183600000
   198    36     8        0.4100000000       -3.8074900000       -1.4623600000        0.2483000000
   199    37     7       -0.8200000000        0.7864500000       -5.2539900000        6.9181600000
   200    37     8        0.4100000000        1.3022600000       -5.7562900000        7.6192600000
   201    37     8        0.4100000000        1.2351400000       -4.3400900000        6.7931600000
   202    38     7       -0.8200000000        2.7173400000        3.6416500000        7.1596600000
   203    38     8        0.4100000000        2.5521400000        4.1779800000        6.2969600000
   204    38     8        0.4100000000        3.1641400000        2.7422500000        6.8968600000
   205    39     7       -0.8200000000        6.1078500000       -3.8329900000       -4.5510400000
   206    39     8        0.4100000000        6.3719500000       -4.6503900000       -3.9760300000
   207    39     8        0.4100000000        5.4552500000       -3.2311900000       -4.0126300000
   208    40     7       -0.8200000000       -7.1679500000       -4.8593900000       -2.7325600000
   209    40     8        0.4100000000       -7.3347500000       -4.3195900000       -1.8644900000
   210    40     8        0.4100000000       -6.7353500000       -4.1130900000       -3.3566600000
   211    41     7       -0.8200000000       -4.3035200000       -6.2718900000       -2.5953700000
   212    41     8        0.4100000000       -4.0714000000       -5.2245900000       -2.4548400000
   213    41     8        0.4100000000       -3.6641900000       -6.7994900000       -3.1480200000
   214    42     7       -0.8200000000       -7.3934500000       -7.3660900000        6.4540600000
   215    42     8        0.4100000000       -7.1747500000       -8.2958500000        6.5025600000
   216    42     8        0.4100000000       -6.5643500000       -6.9175900000        6.8624600000
   217    43     7       -0.8200000000        2.3436600000       -4.7596900000       -5.6968400000
   218    43     8        0.4100000000        2.6594300000       -5.6844900000       -5.2189400000
   219    43     8        0.4100000000        1.4170800000       -4.4870900000       -5.5207400000
   220    44     7       -0.8200000000       -6.7334500000       -2.3549900000       -6.7710400000
   221    44     8        0.4100000000       -5.7626500000       -2.0842900000       -6.5737400000
   222    44     8        0.4100000000       -7.3595500000       -1.7058900000       -7.2596400000
   223    45     7       -0.8200000000       -2.8935800000       -1.6388600000        1.5878300000
   224    45     8        0.4100000000       -3.2261500000       -1.4555400000        2.4984000000
   225    45     8        0.4100000000       -2.7700300000       -2.6530900000        1.5131600000
   226    46     7       -0.8200000000        2.7615200000       -7.2297900000        7.7449600000
   227    46     8        0.4100000000        2.8712400000       -7.3237900000        8.7784600000
   228    46     8        0.4100000000        2.6823300000       -8.1741700000        7.3536600000
   229    47     7       -0.8200000000       -4.5430500000        6.7531700000        6.2689600000
   230    47     8        0.4100000000       -4.4264000000        7.7507700000        6.1714600000
   231    47     8        0.4100000000       -4.0630500000        6.4176700000        5.5059600000
   232    48     7       -0.8200000000        3.5316700000        1.9230800000        2.4174700000
   233    48     8        0.4100000000        2.9229600000        2.2230900000        3.1082100000
   234    48     8        0.4100000000        4.3868400000        2.4113200000        2.5832900000
   235    49     7       -0.8200000000        2.8519500000       -7.3705900000       -5.1905400000
   236    49     8        0.4100000000        2.2168500000       -8.1473200000       -5.0559400000
   237    49     8        0.4100000000        3.7044500000       -7.8328300000       -4.8592400000
   238    50     7       -0.8200000000        2.1257500000       -1.0582000000       -1.8536700000
   239    50     8        0.4100000000        2.1530900000       -2.0584900000       -1.7577000000
   240    50     8        0.4100000000        2.2770200000       -0.6929500000       -0.9180500000
   241    51     7       -0.8200000000        7.4476500000       -7.0044900000        3.5908000000
   242    51     8        0.4100000000        6.9002500000       -7.7715200000        3.3504400000
   243    51     8        0.4100000000        7.7903500000       -7.2500900000        4.5453000000
   244    52     7       -0.8200000000        7.6349500000       -4.5170900000        6.2372600000
   245    52     8        0.4100000000        7.8057500000       -5.3905900000        6.6928600000
   246    52     8        0.4100000000        7.6141500000       -3.8902900000        6.9920600000
   247    53     7       -0.8200000000       -3.6591700000       -3.6797900000       -2.2851600000
   248    53     8        0.4100000000       -4.2920400000       -3.1271900000       -1.7551800000
   249    53     8        0.4100000000       -2.9029100000       -3.0484900000       -2.5230400000
   250    54     7       -0.8200000000        1.1327500000        0.4097300000       -4.0054000000
   251    54     8        0.4100000000        1.9013900000        0.0813800000       -3.4980900000
   252    54     8        0.4100000000        1.0897800000        0.1919400000       -4.9861400000
   253    55     7       -0.8200000000       -0.1601900000       -5.0301900000        4.0873800000
   254    55     8        0.4100000000       -0.5822300000       -5.6788900000        3.3960300000
   255    55     8        0.4100000000        0.5971200000       -4.4970900000        3.6646700000
   256    56     7       -0.8200000000        4.8044700000       -4.5060900000       -6.6179400000
   257    56     8        0.4100000000        3.7960000000       -4.5318900000       -6.3134400000
   258    56     8        0.4100000000        5.3569500000       -4.1404900000       -5.8043400000
   259    57     7       -0.8200000000        0.4259000000        2.8959200000       -6.3337400000
   260    57     8        0.4100000000       -0.1562100000        3.3704900000       -6.9933400000
   261    57     8        0.4100000000        1.3018600000        2.6277100000       -6.8506400000
   262    58     7       -0.8200000000        6.3032500000        6.6144800000       -6.0623400000
   263    58     8        0.4100000000        5.9415500000        7.5645100000       -6.1361400000
   264    58     8        0.4100000000        5.5106500000        6.0437300000       -6.4733400000
   265    59     7       -0.8200000000        6.9858500000        4.7504700000       -0.3347000000
   266    59     8        0.4100000000        6.9077500000        4.2576300000       -1.2187400000
   267    59     8        0.4100000000        6.4583500000        4.2611800000        0.3800800000
   268    60     7       -0.8200000000       -0.2161300000        2.8476600000       -1.0742200000
   269    60     8        0.4100000000        0.6474100000        2.8229400000       -1.6442500000
   270    60     8        0.4100000000       -0.1054300000        3.6077600000       -0.4017000000
   271    61     7       -0.8200000000        7.5754500000       -7.1892900000        0.0496800000
   272    61     8        0.4100000000        7.0124500000       -6.7045900000       -0.6179200000
   273    61     8        0.4100000000        7.2936500000       -6.9266900000        1.0142700000
   274    62     7       -0.8200000000        5.7177500000       -7.3067900000        7.6951600000
   275    62     8        0.4100000000        6.7814500000       -7.3824900000        7.6149600000
   276    62     8        0.4100000000        5.3108500000       -8.0011200000        7.0479600000
   277    63     7       -0.8200000000       -0.2470100000       -2.5513900000       -5.6950400000
   278    63     8        0.4100000000        0.6361500000       -2.2991900000       -5.3478400000
   279    63     8        0.4100000000       -0.2723400000       -2.0930900000       -6.6188400000
   280    64     7       -0.8200000000        1.9112900000       -3.8153900000        3.0169300000
   281    64     8        0.4100000000        2.4199900000       -4.4480900000        2.3487400000
   282    64     8        0.4100000000        2.3291000000       -2.9034900000        2.9431800000
   283    65     7       -0.8200000000        0.7661300000       -1.6481100000        1.1584700000
   284    65     8        0.4100000000        0.6005500000       -2.6189900000        0.9974100000
   285    65     8        0.4100000000        1.3553700000       -1.4422700000        1.9533100000
   286    66     7       -0.8200000000       -0.7121600000       -0.2053800000       -2.0546200000