LAMMPS data file
# 9 LI molecules
# 9 TF2 molecules
# 50 wat molecules

8 atom types
5 bond types
8 angle types
6 dihedral types

294 atoms
226 bonds
275 angles
270 dihedrals

    0.0000   15.4361 xlo xhi
    0.0000   15.3940 ylo yhi
    0.0000   15.4380 zlo zhi

Masses

1    6.941  # li LI
2   16.000  # o TF2
3   19.000  # f TF2
4   12.010  # c3 TF2
5   32.060  # sy TF2
6   14.010  # ne TF2
7   16.000  # oh wat
8    1.008  # ho wat

Pair Coeffs

1 0.0182660800896 2.126  # li LI
2 0.209859347635 2.960  # o TF2
3 0.0609584251392 3.118  # f TF2
4 0.10932640151 3.400  # c3 TF2
5 0.249833029536 3.564  # sy TF2
6 0.169885665734 3.250  # ne TF2
7 0.155323242893 3.165  # oh wat
8 0.0 0.000  # ho wat

Bond Coeffs

1 492.669820742  1.466  # harmonic TF2 o sy
2 363.556158739  1.344  # harmonic TF2 c3 f
3 248.732854675  1.782  # harmonic TF2 c3 sy
4 256.928561626  1.752  # harmonic TF2 ne sy
5 529.230180349  1.012  # harmonic wat ho oh

Angle Coeffs

1 41.2525855296  108.48  # harmonic TF2 c3 sy o
2 45.2700110592  121.88  # harmonic TF2 o sy o
3 43.0716472128  107.06  # harmonic TF2 ne sy o
4 81.1647052992  109.67  # harmonic TF2 f c3 sy
5 71.2114987968  107.16  # harmonic TF2 f c3 f
6 39.3938063424  103.12  # harmonic TF2 c3 sy ne
7 109.646127418  119.18  # harmonic TF2 sy ne sy
8 37.924854457  113.24  # harmonic wat ho oh ho

Dihedral Coeffs

1 0.143896516992  3 0 0.0  # charmm TF2 f c3 sy o
2 0.143896516992  3 0 0.0  # charmm TF2 f c3 sy ne
3 0.499666059072  3 180 0.0  # charmm TF2 sy ne sy o
4 6.79544648813  1 180 0.0  # charmm TF2 sy ne sy o
5 0.499666059072  3 180 0.0  # charmm TF2 sy ne sy c3
6 6.79544648813  1 180 0.0  # charmm TF2 sy ne sy c3

Atoms

     1     1     1        0.8000000000        0.0000000000        0.0000000000        0.0000000000
     2     2     1        0.8000000000        4.1551500000       -1.1458000000       -4.9621200000
     3     3     1        0.8000000000       -6.5636000000       -6.3697900000        3.9801600000
     4     4     1        0.8000000000       -4.3616500000        4.7032900000       -7.5969400000
     5     5     1        0.8000000000        5.6133000000       -1.1727000000        5.8526100000
     6     6     1        0.8000000000       -3.2981200000       -6.2361600000       -1.4476200000
     7     7     1        0.8000000000        3.9235500000        2.6161000000       -5.6815200000
     8     8     1        0.8000000000       -2.1149700000       -1.7100000000        6.5000900000
     9     9     1        0.8000000000       -1.5484400000        2.6169000000       -2.1610200000
    10    10     2       -0.4610000000       -0.0175300000        5.2215200000       -5.4258200000
    11    10     3       -0.1380000000        1.7653900000        5.4353900000       -7.8438100000
    12    10     4        0.3190000000        1.9140800000        6.3622600000       -6.9010100000
    13    10     5        0.9110000000        0.3652300000        6.5377500000       -6.0287900000
    14    10     2       -0.4610000000       -0.5619600000        7.4022500000       -6.7371600000
    15    10     3       -0.1380000000        2.9998300000        6.1579800000       -6.1164900000
    16    10     6       -0.5880000000        0.5272100000        7.7221500000       -4.7463200000
    17    10     2       -0.4610000000        0.4997700000        7.3001600000       -2.2449200000
    18    10     3       -0.1380000000        2.0907500000        7.5331700000       -7.6195400000
    19    10     5        0.9110000000        1.5017400000        7.2916200000       -3.3643200000
    20    10     2       -0.4610000000        2.0579900000        5.9306200000       -3.4784200000
    21    10     3       -0.1380000000        2.1519900000        9.7418100000       -3.0793200000
    22    10     3       -0.1380000000        3.7952500000        8.5773700000       -3.9358200000
    23    10     4        0.3190000000        2.7439900000        8.5549000000       -3.1221200000
    24    10     3       -0.1380000000        3.3228600000        8.3463400000       -1.9209200000
    25    11     2       -0.4610000000       -4.9632900000        1.0973000000        7.3375600000
    26    11     3       -0.1380000000       -6.0809000000        0.3626000000       10.2179800000
    27    11     4        0.3190000000       -6.6958000000        1.2695000000        9.4062600000
    28    11     5        0.9110000000       -5.4894000000        2.0260000000        8.3563800000
    29    11     2       -0.4610000000       -4.5713000000        2.7942000000        9.1893800000
    30    11     3       -0.1380000000       -7.6340000000        0.5473000000        8.7409400000
    31    11     6       -0.5880000000       -6.0633000000        3.4187000000        7.4343100000
    32    11     2       -0.4610000000       -8.4944000000        2.4425000000        6.7238600000
    33    11     3       -0.1380000000       -7.3973000000        2.1445000000       10.1963800000
    34    11     5        0.9110000000       -7.7657000000        3.7471400000        6.9496300000
    35    11     2       -0.4610000000       -8.2222000000        4.6996600000        7.9946600000
    36    11     3       -0.1380000000       -7.3964000000        5.8469700000        5.5853400000
    37    11     3       -0.1380000000       -9.0943000000        4.5799100000        4.9432200000
    38    11     4        0.3190000000       -7.7926000000        4.5781100000        5.3810100000
    39    11     3       -0.1380000000       -7.0354000000        3.9781100000        4.4388400000
    40    12     2       -0.4610000000        6.3839000000       -4.3257800000       -3.1269200000
    41    12     3       -0.1380000000        5.1592000000       -4.9974200000       -0.4483200000
    42    12     4        0.3190000000        6.5308000000       -5.0399300000       -0.4700200000
    43    12     5        0.9110000000        7.0964000000       -4.0785600000       -1.9035200000
    44    12     2       -0.4610000000        8.5620000000       -4.0849300000       -1.8947200000
    45    12     3       -0.1380000000        6.9942000000       -4.4730400000        0.6057900000
    46    12     6       -0.5880000000        6.6754000000       -2.4286900000       -1.6387200000
    47    12     2       -0.4610000000        8.4925000000       -2.2707200000        0.1657300000
    48    12     3       -0.1380000000        6.9521000000       -6.3260500000       -0.4784200000
    49    12     5        0.9110000000        7.7157000000       -1.3638000000       -0.6654200000
    50    12     2       -0.4610000000        8.5679000000       -0.6548000000       -1.6719200000
    51    12     3       -0.1380000000        7.1636000000        0.1845000000        1.3585300000
    52    12     3       -0.1380000000        5.7963000000       -1.3772000000        1.1601000000
    53    12     4        0.3190000000        6.5359000000       -0.5891000000        0.4038700000
    54    12     3       -0.1380000000        5.6272000000        0.1665000000       -0.2308200000
    55    13     2       -0.4610000000       -6.2793000000       -1.3275000000        4.6865100000
    56    13     3       -0.1380000000       -5.5791000000       -0.0534000000        1.9450900000
    57    13     4        0.3190000000       -5.1225000000        0.3816000000        3.1493800000
    58    13     5        0.9110000000       -4.9039600000       -1.0273000000        4.2972900000
    59    13     2       -0.4610000000       -3.7622500000       -0.8905000000        5.2002600000
    60    13     3       -0.1380000000       -3.9772600000        0.9499000000        2.8328100000
    61    13     6       -0.5880000000       -4.4663100000       -2.5114500000        3.4531800000
    62    13     2       -0.4610000000       -3.9622600000       -2.7407900000        1.0734100000
    63    13     3       -0.1380000000       -5.8951000000        1.3079000000        3.6620600000
    64    13     5        0.9110000000       -3.1750900000       -2.5338400000        2.2797700000
    65    13     2       -0.4610000000       -2.4628700000       -1.2162000000        2.3722500000
    66    13     3       -0.1380000000       -0.7614400000       -3.5837400000        2.2793300000
    67    13     3       -0.1380000000       -2.4428700000       -4.9938300000        2.4827100000
    68    13     4        0.3190000000       -1.9607900000       -3.7416700000        2.7776900000
    69    13     3       -0.1380000000       -1.7826200000       -3.6722300000        4.0718600000
    70    14     2       -0.4610000000        3.9231400000       -2.5966500000        6.9591200000
    71    14     3       -0.1380000000        0.3269700000       -2.1944300000        8.2272300000
    72    14     4        0.3190000000        1.3788500000       -3.0421700000        8.0125900000
    73    14     5        0.9110000000        2.5197600000       -2.1163500000        7.0067400000
    74    14     2       -0.4610000000        2.3786200000       -0.6643000000        7.0384500000
    75    14     3       -0.1380000000        1.8756700000       -3.2557100000        9.2556200000
    76    14     6       -0.5880000000        1.8320300000       -2.4596100000        5.3707500000
    77    14     2       -0.4610000000        1.9395700000       -2.1511500000        2.7873100000
    78    14     3       -0.1380000000        0.8440800000       -4.1368800000        7.4714300000
    79    14     5        0.9110000000        2.8410200000       -2.5253400000        3.9244400000
    80    14     2       -0.4610000000        3.9704900000       -1.7199000000        4.4149800000
    81    14     3       -0.1380000000        4.2443000000       -4.6094100000        4.6336900000
    82    14     3       -0.1380000000        4.2992000000       -4.2774100000        2.5564800000
    83    14     4        0.3190000000        3.4902200000       -4.1739000000        3.6265000000
    84    14     3       -0.1380000000        2.5212200000       -5.1592600000        3.5280700000
    85    15     2       -0.4610000000       -4.4423800000        5.8200900000        5.8424400000
    86    15     3       -0.1380000000       -4.0077300000        3.8633000000        3.5830900000
    87    15     4        0.3190000000       -3.4640400000        5.1062400000        3.3853400000
    88    15     5        0.9110000000       -4.1473600000        6.3640400000        4.4942800000
    89    15     2       -0.4610000000       -5.3570000000        7.0552000000        4.0221500000
    90    15     3       -0.1380000000       -2.1464000000        4.9856400000        3.4596300000
    91    15     6       -0.5880000000       -2.9353300000        7.6368200000        4.3717700000
    92    15     2       -0.4610000000       -2.1549300000        9.0180000000        6.1963800000
    93    15     3       -0.1380000000       -3.5808900000        5.5253200000        2.0741100000
    94    15     5        0.9110000000       -1.7155400000        7.7553000000        5.5672100000
    95    15     2       -0.4610000000       -1.6957700000        6.4878300000        6.3435900000
    96    15     3       -0.1380000000       -0.1288400000        9.0072400000        3.8716200000
    97    15     3       -0.1380000000        0.1939200000        6.9089500000        3.8989700000
    98    15     4        0.3190000000       -0.1189300000        7.9626500000        4.7410400000
    99    15     3       -0.1380000000        0.8233700000        8.3476700000        5.5645100000
   100    16     2       -0.4610000000        6.1066000000        4.4726700000       -2.9134200000
   101    16     3       -0.1380000000        6.7502000000        6.5078500000       -0.7128200000
   102    16     4        0.3190000000        6.0103000000        5.5135500000       -0.2738200000
   103    16     5        0.9110000000        5.8029000000        4.1050100000       -1.5041200000
   104    16     2       -0.4610000000        4.7037000000        3.1797000000       -1.1836200000
   105    16     3       -0.1380000000        6.5243000000        4.9772400000        0.8987400000
   106    16     6       -0.5880000000        7.1338000000        3.0762000000       -1.2479200000
   107    16     2       -0.4610000000        9.3666000000        2.5641000000       -2.3807200000
   108    16     3       -0.1380000000        4.7907200000        5.9296700000       -0.1014500000
   109    16     5        0.9110000000        8.7642000000        3.6378100000       -1.5219200000
   110    16     2       -0.4610000000        8.6434000000        4.9728900000       -2.1197200000
   111    16     3       -0.1380000000        8.9220000000        3.1951000000        1.1779600000
   112    16     3       -0.1380000000        9.3693000000        5.1816900000        0.5186000000
   113    16     4        0.3190000000        9.5285000000        3.8856600000        0.1546400000
   114    16     3       -0.1380000000       10.8214300000        3.5247300000        0.1203600000
   115    17     2       -0.4610000000        3.2975100000        4.3181200000        1.4370800000
   116    17     3       -0.1380000000        1.4687200000        3.9439300000       -1.3122200000
   117    17     4        0.3190000000        1.0020100000        4.2254300000       -0.0693800000
   118    17     5        0.9110000000        2.0889300000        3.5572900000        1.1874400000
   119    17     2       -0.4610000000        2.3002700000        2.1537000000        0.9597600000
   120    17     3       -0.1380000000        0.9878000000        5.6004700000       -0.0577000000
   121    17     6       -0.5880000000        1.2299400000        3.4612000000        2.6717600000
   122    17     2       -0.4610000000        2.5024300000        5.3485300000        3.9531500000
   123    17     3       -0.1380000000       -0.2296800000        3.7322600000       -0.0164700000
   124    17     5        0.9110000000        1.8758900000        4.0026200000        4.1161200000
   125    17     2       -0.4610000000        0.5811600000        4.0055100000        4.8669900000
   126    17     3       -0.1380000000        2.2815800000        1.5275000000        4.8368400000
   127    17     3       -0.1380000000        3.4237400000        2.9332000000        5.8782300000
   128    17     4        0.3190000000        2.9735600000        2.6785000000        4.7077500000
   129    17     3       -0.1380000000        4.0773000000        2.4505000000        3.8733100000
   130    18     2       -0.4610000000        7.7157000000       -6.1995300000        5.7509800000
   131    18     3       -0.1380000000        5.5495000000       -7.7153600000        7.0687100000
   132    18     4        0.3190000000        5.9174000000       -6.6267700000        7.6895700000
   133    18     5        0.9110000000        7.6276000000       -6.2752300000        7.2116200000
   134    18     2       -0.4610000000        8.4326000000       -7.3499000000        7.7977800000
   135    18     3       -0.1380000000        5.0951000000       -5.6219100000        7.3660300000
   136    18     6       -0.5880000000        8.0800000000       -4.6217300000        7.8109800000
   137    18     2       -0.4610000000        8.3208000000       -5.3692200000       10.2677800000
   138    18     3       -0.1380000000        5.8546000000       -6.8681900000        8.9650600000
   139    18     5        0.9110000000        9.0803000000       -4.6333800000        9.2224900000
   140    18     2       -0.4610000000       10.2756000000       -5.1623900000        8.6419900000
   141    18     3       -0.1380000000        8.0908000000       -2.3486400000       10.0379800000
   142    18     3       -0.1380000000        9.6202000000       -2.2419400000        8.4417700000
   143    18     4        0.3190000000        9.2687000000       -2.8473800000        9.5734500000
   144    18     3       -0.1380000000       10.3360000000       -2.6923600000       10.4459800000
   145    19     7       -0.8200000000       -2.8312500000       -0.0644000000       -5.0581200000
   146    19     8        0.4100000000       -3.0207500000       -0.9880000000       -4.7193200000
   147    19     8        0.4100000000       -3.3435300000        0.6294000000       -4.5498200000
   148    20     7       -0.8200000000       -0.9306900000        7.6106000000        0.8156400000
   149    20     8        0.4100000000       -1.9244300000        7.3761700000        0.9053200000
   150    20     8        0.4100000000       -0.3932500000        7.0607800000        1.4718400000
   151    21     7       -0.8200000000        1.9139000000       -0.8244000000        0.4581500000
   152    21     8        0.4100000000        2.5466200000       -0.0490000000        0.5488700000
   153    21     8        0.4100000000        1.6839300000       -1.1319000000        1.3459100000
   154    22     7       -0.8200000000       -0.3935400000       -4.1058400000       -1.5642200000
   155    22     8        0.4100000000        0.3764600000       -3.6044600000       -2.0234200000
   156    22     8        0.4100000000       -0.1450500000       -4.8643000000       -0.8827200000
   157    23     7       -0.8200000000        0.6141700000        0.9862000000       -1.7498200000
   158    23     8        0.4100000000        1.6490800000        0.9152000000       -1.8146200000
   159    23     8        0.4100000000        0.2816500000        1.2111000000       -2.7222200000
   160    24     7       -0.8200000000       -0.6862900000       -1.4921000000        5.0109400000
   161    24     8        0.4100000000        0.1848800000       -2.0242800000        5.1606000000
   162    24     8        0.4100000000       -0.8415000000       -1.4747000000        4.0015800000
   163    25     7       -0.8200000000       -3.9923400000       -4.1503500000       -1.3383200000
   164    25     8        0.4100000000       -3.9532600000       -3.6913900000       -0.4444200000
   165    25     8        0.4100000000       -4.9253400000       -4.0434200000       -1.7630200000
   166    26     7       -0.8200000000       -1.6777100000       -5.9041800000       -3.0904200000
   167    26     8        0.4100000000       -1.0356400000       -5.3184600000       -2.5410200000
   168    26     8        0.4100000000       -1.1866100000       -6.8028800000       -3.2267200000
   169    27     7       -0.8200000000        2.3513700000       -3.0632600000       -1.1204200000
   170    27     8        0.4100000000        2.3170000000       -2.2514300000       -0.5230200000
   171    27     8        0.4100000000        2.1182200000       -3.9723200000       -0.6586200000
   172    28     7       -0.8200000000        2.5263000000        2.8466000000       -4.0392200000
   173    28     8        0.4100000000        2.2346000000        3.7539300000       -3.7090200000
   174    28     8        0.4100000000        2.6733600000        2.2691000000       -3.2509200000
   175    29     7       -0.8200000000       -6.8304000000        7.6516500000       -3.0575200000
   176    29     8        0.4100000000       -7.3263000000        8.1814900000       -3.7971200000
   177    29     8        0.4100000000       -7.2297000000        6.6877000000       -2.9761200000
   178    30     7       -0.8200000000       -2.6277500000        3.9527600000        7.0862400000
   179    30     8        0.4100000000       -2.0425700000        4.8242500000        6.7303800000
   180    30     8        0.4100000000       -2.4366500000        3.2469000000        6.3489800000
   181    31     7       -0.8200000000       -3.0191800000       -7.4814800000       -5.9870800000
   182    31     8        0.4100000000       -2.9732000000       -6.4788400000       -6.0502900000
   183    31     8        0.4100000000       -2.2181700000       -7.9233900000       -6.4613900000
   184    32     7       -0.8200000000       -6.2725000000       -7.4081000000        1.4746200000
   185    32     8        0.4100000000       -7.2553000000       -7.2051500000        1.8061500000
   186    32     8        0.4100000000       -5.9593000000       -8.3774400000        1.6863000000
   187    33     7       -0.8200000000        2.1594000000        2.0967000000       -6.9389100000
   188    33     8        0.4100000000        2.3073800000        1.2509000000       -7.5178200000
   189    33     8        0.4100000000        1.1398200000        2.2212000000       -6.8950500000
   190    34     7       -0.8200000000        5.1801000000        0.4832000000        7.1066100000
   191    34     8        0.4100000000        5.7044000000        1.3149000000        6.9208100000
   192    34     8        0.4100000000        4.2103000000        0.7729000000        7.1540900000
   193    35     7       -0.8200000000        6.6359000000        0.6628000000       -3.1425200000
   194    35     8        0.4100000000        7.0438000000        1.4375000000       -2.6082200000
   195    35     8        0.4100000000        7.3182000000       -0.1187000000       -3.2088200000
   196    36     7       -0.8200000000       -6.6741000000       -4.4756700000        3.1312000000
   197    36     8        0.4100000000       -6.0615000000       -3.8181100000        3.5910600000
   198    36     8        0.4100000000       -6.6981000000       -4.0919600000        2.2061900000
   199    37     7       -0.8200000000       -2.7372300000       -2.7652900000       -3.4948200000
   200    37     8        0.4100000000       -2.6751700000       -3.3493100000       -4.3807200000
   201    37     8        0.4100000000       -3.2325900000       -3.3475100000       -2.8037200000
   202    38     7       -0.8200000000        6.8105000000       -6.8778600000        2.9607100000
   203    38     8        0.4100000000        6.3800000000       -5.9589500000        3.0165100000
   204    38     8        0.4100000000        6.0614000000       -7.5254500000        3.0982200000
   205    39     7       -0.8200000000       -2.5359900000       -3.6036800000        7.2585800000
   206    39     8        0.4100000000       -2.2313400000       -4.5495200000        6.9660000000
   207    39     8        0.4100000000       -2.9562700000       -3.6103300000        8.1749900000
   208    40     7       -0.8200000000       -3.3625600000        4.6030400000       -4.3608200000
   209    40     8        0.4100000000       -3.8319200000        5.4819500000       -4.2022200000
   210    40     8        0.4100000000       -4.0410500000        4.0799500000       -4.9492200000
   211    41     7       -0.8200000000        6.7097000000       -0.1434000000        4.5820000000
   212    41     8        0.4100000000        6.9772000000        0.5825000000        3.8782000000
   213    41     8        0.4100000000        7.6721000000       -0.3666000000        4.8338500000
   214    42     7       -0.8200000000       -5.3033000000       -6.4747600000       -0.9322200000
   215    42     8        0.4100000000       -6.0704000000       -6.7244500000       -1.5597200000
   216    42     8        0.4100000000       -5.6862000000       -6.5192900000        0.0708200000
   217    43     7       -0.8200000000       -1.2090800000        4.6600200000       -2.7968200000
   218    43     8        0.4100000000       -1.7450700000        4.4419500000       -3.6193200000
   219    43     8        0.4100000000       -0.4919300000        5.3479000000       -3.0661200000
   220    44     7       -0.8200000000       -3.5050800000        2.1664000000       -2.9457200000
   221    44     8        0.4100000000       -4.3818800000        1.9862000000       -2.4344200000
   222    44     8        0.4100000000       -3.7733800000        2.9872000000       -3.5539200000
   223    45     7       -0.8200000000       -5.3201000000        6.0817600000       -6.5297500000
   224    45     8        0.4100000000       -4.6633600000        6.7580700000       -6.0570000000
   225    45     8        0.4100000000       -6.0522000000        6.6329800000       -7.0092300000
   226    46     7       -0.8200000000        6.8296000000       -2.9086800000        6.0892000000
   227    46     8        0.4100000000        7.2514000000       -3.1434700000        5.1791600000
   228    46     8        0.4100000000        7.1897000000       -3.5750200000        6.8802200000
   229    47     7       -0.8200000000       -4.0557300000       -0.5784000000       -0.7751200000
   230    47     8        0.4100000000       -4.8214600000       -0.2454000000       -1.3188200000
   231    47     8        0.4100000000       -4.2563200000       -1.0006000000        0.1205400000
   232    48     7       -0.8200000000       -1.2934700000       -1.7091000000       -0.7434200000
   233    48     8        0.4100000000       -2.2646600000       -1.4396000000       -0.9927200000
   234    48     8        0.4100000000       -1.1454800000       -2.7348800000       -0.8925200000
   235    49     7       -0.8200000000       -0.7339600000        1.7024000000       -3.8836200000
   236    49     8        0.4100000000       -1.1296700000        0.9307000000       -4.4174200000
   237    49     8        0.4100000000       -0.2940200000        2.3872000000       -4.5745200000
   238    50     7       -0.8200000000       -4.3522500000        6.9741100000       -3.7460200000
   239    50     8        0.4100000000       -5.3023000000        7.2707000000       -3.4385200000
   240    50     8        0.4100000000       -3.9116700000        7.5282300000       -4.5121200000
   241    51     7       -0.8200000000       -1.5803900000        1.8487000000        5.4387700000
   242    51     8        0.4100000000       -0.9244300000        2.4251000000        4.9225200000
   243    51     8        0.4100000000       -1.4388400000        0.8456000000        5.2868800000
   244    52     7       -0.8200000000        4.0668900000       -1.8207000000       -2.9012200000
   245    52     8        0.4100000000        5.0209000000       -2.0317700000       -2.5771200000
   246    52     8        0.4100000000        3.4039600000       -2.3345500000       -2.3535200000
   247    53     7       -0.8200000000        0.6293300000       -5.8170600000        0.1198700000
   248    53     8        0.4100000000       -0.1062100000       -6.5138600000        0.2470100000
   249    53     8        0.4100000000        1.4845900000       -6.1993300000        0.5578700000
   250    54     7       -0.8200000000       -2.6291800000        7.1328300000       -1.6321200000
   251    54     8        0.4100000000       -3.1562500000        6.6112200000       -2.3174200000
   252    54     8        0.4100000000       -1.7623700000        6.6177200000       -1.5942200000
   253    55     7       -0.8200000000       -0.2092500000       -1.3969000000       -3.5368200000
   254    55     8        0.4100000000       -0.3952500000       -1.0515000000       -2.5922200000
   255    55     8        0.4100000000       -1.0244000000       -2.0743400000       -3.6808200000
   256    56     7       -0.8200000000        4.6484200000        6.6833400000        2.8406600000
   257    56     8        0.4100000000        3.9100800000        6.8520700000        3.5198700000
   258    56     8        0.4100000000        4.5409600000        5.7184200000        2.5101300000
   259    57     7       -0.8200000000        3.1485700000        0.8950000000       -1.8821200000
   260    57     8        0.4100000000        3.5887900000        0.2175000000       -2.5299200000
   261    57     8        0.4100000000        3.8341600000        1.5376000000       -1.4100200000
   262    58     7       -0.8200000000       -0.5263400000        2.4467000000       -6.8885200000
   263    58     8        0.4100000000       -1.0950300000        3.2858000000       -6.8578700000
   264    58     8        0.4100000000       -1.0056500000        1.9122000000       -7.6123300000
   265    59     7       -0.8200000000       -4.9934700000       -5.7199500000        5.2891200000
   266    59     8        0.4100000000       -4.0623700000       -5.8012000000        4.7860100000
   267    59     8        0.4100000000       -4.9011400000       -5.8596100000        6.2672900000
   268    60     7       -0.8200000000        2.9352400000       -7.3385100000        0.9291200000
   269    60     8        0.4100000000        3.2929900000       -7.7421900000        0.1113200000
   270    60     8        0.4100000000        3.3610500000       -7.9369200000        1.6109900000
   271    61     7       -0.8200000000       -2.3067800000        1.5571000000       -0.3723200000
   272    61     8        0.4100000000       -2.5893900000        2.1984000000        0.3908000000
   273    61     8        0.4100000000       -2.8537600000        0.7328000000       -0.4903200000
   274    62     7       -0.8200000000       -2.2108400000       -0.0960000000        7.6827100000
   275    62     8        0.4100000000       -2.4531800000       -0.1028000000        8.7093800000
   276    62     8        0.4100000000       -3.0460600000        0.2068000000        7.1388500000
   277    63     7       -0.8200000000        2.1644100000       -0.1374000000       -4.6600200000
   278    63     8        0.4100000000        1.9880800000        0.8333000000       -4.9336200000
   279    63     8        0.4100000000        1.2879600000       -0.6138000000       -4.3648200000
   280    64     7       -0.8200000000        5.1121000000       -2.8436200000       -5.8328300000
   281    64     8        0.4100000000        5.5309000000       -3.2996500000       -5.0267200000
   282    64     8        0.4100000000        5.1798000000       -3.5436500000       -6.6217500000
   283    65     7       -0.8200000000       -1.9624300000       -4.4462400000       -5.5714200000
   284    65     8        0.4100000000       -1.9041200000       -5.0807200000       -4.7728200000
   285    65     8        0.4100000000       -1.3041100000       -4.7681200000       -6.2864700000
   286    66     7       -0.8200000000       -0.4840800000        0.9833000000        1.9019400000