LAMMPS data file
# 9 LI molecules
# 9 TF2 molecules
# 50 wat molecules

8 atom types
5 bond types
8 angle types
6 dihedral types

294 atoms
226 bonds
275 angles
270 dihedrals

    0.0000   15.7932 xlo xhi
    0.0000   15.7932 ylo yhi
    0.0000   15.7932 zlo zhi

Masses

1    6.941  # li LI
2   16.000  # o TF2
3   19.000  # f TF2
4   12.010  # c3 TF2
5   32.060  # sy TF2
6   14.010  # ne TF2
7   16.000  # oh wat
8    1.008  # ho wat

Pair Coeffs

1 0.0182660800896 2.126  # li LI
2 0.209859347635 2.960  # o TF2
3 0.0609584251392 3.118  # f TF2
4 0.10932640151 3.400  # c3 TF2
5 0.249833029536 3.564  # sy TF2
6 0.169885665734 3.250  # ne TF2
7 0.155323242893 3.165  # oh wat
8 0.0 0.000  # ho wat

Bond Coeffs

1 492.669820742  1.466  # harmonic TF2 o sy
2 363.556158739  1.344  # harmonic TF2 c3 f
3 248.732854675  1.782  # harmonic TF2 c3 sy
4 256.928561626  1.752  # harmonic TF2 ne sy
5 529.230180349  1.012  # harmonic wat ho oh

Angle Coeffs

1 41.2525855296  108.48  # harmonic TF2 c3 sy o
2 45.2700110592  121.88  # harmonic TF2 o sy o
3 43.0716472128  107.06  # harmonic TF2 ne sy o
4 81.1647052992  109.67  # harmonic TF2 f c3 sy
5 71.2114987968  107.16  # harmonic TF2 f c3 f
6 39.3938063424  103.12  # harmonic TF2 c3 sy ne
7 109.646127418  119.18  # harmonic TF2 sy ne sy
8 37.924854457  113.24  # harmonic wat ho oh ho

Dihedral Coeffs

1 0.143896516992  3 0 0.0  # charmm TF2 f c3 sy o
2 0.143896516992  3 0 0.0  # charmm TF2 f c3 sy ne
3 0.499666059072  3 180 0.0  # charmm TF2 sy ne sy o
4 6.79544648813  1 180 0.0  # charmm TF2 sy ne sy o
5 0.499666059072  3 180 0.0  # charmm TF2 sy ne sy c3
6 6.79544648813  1 180 0.0  # charmm TF2 sy ne sy c3

Atoms

     1     1     1        0.8000000000        0.0000000000        0.0000000000        0.0000000000
     2     2     1        0.8000000000        6.0896300000        4.4261800000        7.8433600000
     3     3     1        0.8000000000        7.0042400000       -3.5143600000        3.5472300000
     4     4     1        0.8000000000       -6.6330700000        2.2657900000        6.1081600000
     5     5     1        0.8000000000       -6.0267700000        5.3276800000        2.2195700000
     6     6     1        0.8000000000       -0.8785200000        1.5602100000        7.6675600000
     7     7     1        0.8000000000       -1.1562300000        4.0735800000       -3.9082000000
     8     8     1        0.8000000000       -6.6413800000       -4.9132000000        7.3355600000
     9     9     1        0.8000000000        0.8044200000        3.5922800000        1.2961700000
    10    10     2       -0.4610000000        5.8405300000        0.9210800000        7.8049600000
    11    10     3       -0.1380000000        7.9009000000       -2.1655900000        7.1455600000
    12    10     4        0.3190000000        6.9771300000       -1.5416100000        7.8674600000
    13    10     5        0.9110000000        7.1032900000        0.2509400000        7.7141600000
    14    10     2       -0.4610000000        7.6748600000        0.5310800000        6.3894600000
    15    10     3       -0.1380000000        5.7872300000       -1.9795800000        7.6173600000
    16    10     6       -0.5880000000        8.2339900000        0.8599800000        8.9402600000
    17    10     2       -0.4610000000        8.9996100000        2.6147400000       10.5130600000
    18    10     3       -0.1380000000        7.1930700000       -1.7914600000        9.1739600000
    19    10     5        0.9110000000        7.7506700000        2.2633700000        9.9128600000
    20    10     2       -0.4610000000        7.1592800000        3.1886800000        9.0227600000
    21    10     3       -0.1380000000        6.3181300000        2.6156800000       12.1565800000
    22    10     3       -0.1380000000        6.6592300000        0.6413600000       11.5751600000
    23    10     4        0.3190000000        6.4921300000        1.7990700000       11.0757700000
    24    10     3       -0.1380000000        5.2683300000        1.7180600000       10.5152600000
    25    11     2       -0.4610000000        7.6197800000        5.7746800000       -4.3680200000
    26    11     3       -0.1380000000        9.1086700000        3.6076800000       -2.1739300000
    27    11     4        0.3190000000        8.6022700000        4.8222800000       -2.0337300000
    28    11     5        0.9110000000        8.8017800000        5.6839800000       -3.5696900000
    29    11     2       -0.4610000000       10.0020400000        5.1998800000       -4.2503600000
    30    11     3       -0.1380000000        7.1921800000        4.5628800000       -1.8437100000
    31    11     6       -0.5880000000        8.9880700000        7.3179800000       -3.0726200000
    32    11     2       -0.4610000000       11.2717500000        6.8743800000       -2.3690500000
    33    11     3       -0.1380000000        8.9477000000        5.5252800000       -0.9534500000
    34    11     5        0.9110000000       10.5963300000        7.9378800000       -3.0970600000
    35    11     2       -0.4610000000       10.8283800000        8.2059800000       -4.5039400000
    36    11     3       -0.1380000000        9.6407900000       10.3028900000       -2.4084300000
    37    11     3       -0.1380000000       11.8476100000       10.0672400000       -2.4005000000
    38    11     4        0.3190000000       10.7425400000        9.4728900000       -2.1326300000
    39    11     3       -0.1380000000       10.6671600000        9.2759300000       -0.7840000000
    40    12     2       -0.4610000000       -7.7496500000       -4.4151800000       -6.7313400000
    41    12     3       -0.1380000000       -9.0841700000       -5.8479300000       -4.2077800000
    42    12     4        0.3190000000       -8.9330300000       -6.4204800000       -5.4499400000
    43    12     5        0.9110000000       -9.0233700000       -5.1116200000       -6.6577400000
    44    12     2       -0.4610000000      -10.3698700000       -4.4814900000       -6.6755400000
    45    12     3       -0.1380000000       -7.7941000000       -7.1258200000       -5.5539400000
    46    12     6       -0.5880000000       -8.6208400000       -5.7548900000       -8.2428400000
    47    12     2       -0.4610000000       -9.1434700000       -4.7183100000      -10.3219400000
    48    12     3       -0.1380000000       -9.9926700000       -7.2407200000       -5.5874400000
    49    12     5        0.9110000000       -9.7058700000       -5.7479100000       -9.5139400000
    50    12     2       -0.4610000000       -9.5619700000       -7.1929200000       -9.8870400000
    51    12     3       -0.1380000000      -11.7437700000       -4.1546500000       -9.0005400000
    52    12     3       -0.1380000000      -11.8949700000       -6.1614500000       -8.2395400000
    53    12     4        0.3190000000      -11.4327700000       -5.4378200000       -9.2526400000
    54    12     3       -0.1380000000      -12.1497700000       -5.7265700000      -10.3424400000
    55    13     2       -0.4610000000        0.6024400000        7.8309800000       -3.7100700000
    56    13     3       -0.1380000000       -1.2115900000        6.3104800000       -5.4543400000
    57    13     4        0.3190000000       -0.5663000000        7.3438800000       -6.0365400000
    58    13     5        0.9110000000        0.9208700000        7.7750800000       -5.1031200000
    59    13     2       -0.4610000000        1.7416300000        8.8776300000       -5.6013400000
    60    13     3       -0.1380000000       -0.3121200000        6.8563800000       -7.2246400000
    61    13     6       -0.5880000000        2.0655300000        6.4679800000       -5.3386400000
    62    13     2       -0.4610000000        0.8235100000        5.0089800000       -3.7930900000
    63    13     3       -0.1380000000       -1.3526900000        8.4297800000       -6.2742400000
    64    13     5        0.9110000000        2.1885300000        5.1331800000       -4.2645200000
    65    13     2       -0.4610000000        2.7225300000        4.0855800000       -5.1843400000
    66    13     3       -0.1380000000        4.5063300000        5.7502800000       -3.3682800000
    67    13     3       -0.1380000000        3.3563300000        4.5793800000       -1.9691600000
    68    13     4        0.3190000000        3.3031300000        5.5736800000       -2.8765400000
    69    13     3       -0.1380000000        2.8951300000        6.5870800000       -2.1769000000
    70    14     2       -0.4610000000       -3.5093700000       -1.4149100000       -6.8914400000
    71    14     3       -0.1380000000       -5.3006800000       -3.6216800000       -5.0062400000
    72    14     4        0.3190000000       -4.0202400000       -3.7257300000       -5.4266400000
    73    14     5        0.9110000000       -3.7606900000       -2.8880600000       -7.0362400000
    74    14     2       -0.4610000000       -4.9510600000       -3.3915100000       -7.7323400000
    75    14     3       -0.1380000000       -3.3273100000       -3.0912000000       -4.4117000000
    76    14     6       -0.5880000000       -2.1698300000       -3.5008000000       -7.5318400000
    77    14     2       -0.4610000000       -3.1223700000       -5.6112400000       -8.7528400000
    78    14     3       -0.1380000000       -3.6068400000       -5.0293300000       -5.2961400000
    79    14     5        0.9110000000       -2.1152600000       -4.5337400000       -8.8519400000
    80    14     2       -0.4610000000       -2.5211400000       -3.5654800000       -9.9170400000
    81    14     3       -0.1380000000       -0.3986600000       -5.5030100000      -10.3744400000
    82    14     3       -0.1380000000       -0.0461900000       -6.3368000000       -8.4013400000
    83    14     4        0.3190000000       -0.4551500000       -5.2440800000       -9.0826400000
    84    14     3       -0.1380000000        0.5240900000       -4.3026100000       -8.8209400000
    85    15     2       -0.4610000000        7.3912600000        0.2140000000       -0.8969200000
    86    15     3       -0.1380000000        6.1925300000       -2.2704400000        0.2644100000
    87    15     4        0.3190000000        7.2427200000       -2.5028200000       -0.5687800000
    88    15     5        0.9110000000        8.2599100000       -0.9928200000       -0.6502300000
    89    15     2       -0.4610000000        9.3269900000       -1.1046400000       -1.6504000000
    90    15     3       -0.1380000000        7.9099300000       -3.5682600000       -0.1663400000
    91    15     6       -0.5880000000        9.0546200000       -0.8071700000        0.9135400000
    92    15     2       -0.4610000000       11.3866200000       -0.1642100000       -0.2096000000
    93    15     3       -0.1380000000        6.7041300000       -2.7643400000       -1.7988400000
    94    15     5        0.9110000000       10.8115300000       -0.6869300000        1.0010000000
    95    15     2       -0.4610000000       11.1302000000        0.1167600000        2.1892100000
    96    15     3       -0.1380000000       12.5046300000       -2.6986000000        1.1271700000
    97    15     3       -0.1380000000       10.8125600000       -3.0888500000       -0.0755600000
    98    15     4        0.3190000000       11.2244000000       -2.4664100000        0.9474300000
    99    15     3       -0.1380000000       10.6008100000       -2.9470800000        2.0602000000
   100    16     2       -0.4610000000        1.3941300000       -0.4150300000        1.7898000000
   101    16     3       -0.1380000000        0.3398300000       -3.0001700000        3.3540400000
   102    16     4        0.3190000000        0.7418300000       -1.8741600000        4.0247900000
   103    16     5        0.9110000000        1.9631300000       -1.1053200000        2.9498900000
   104    16     2       -0.4610000000        2.9220300000       -2.1836500000        2.6626300000
   105    16     3       -0.1380000000       -0.2889000000       -1.0519600000        4.2981700000
   106    16     6       -0.5880000000        2.5894300000        0.2238500000        3.8992000000
   107    16     2       -0.4610000000        4.1397300000        1.0537500000        5.5811600000
   108    16     3       -0.1380000000        1.3277300000       -2.2474700000        5.1804600000
   109    16     5        0.9110000000        4.2201300000        0.2631000000        4.3863600000
   110    16     2       -0.4610000000        4.6422300000       -1.1712700000        4.5909400000
   111    16     3       -0.1380000000        5.0174300000        0.4754400000        1.8836000000
   112    16     3       -0.1380000000        6.5523300000        0.7943900000        3.3047100000
   113    16     4        0.3190000000        5.2512300000        1.0010700000        3.0906700000
   114    16     3       -0.1380000000        5.1389300000        2.3494700000        2.9262600000
   115    17     2       -0.4610000000        6.2819300000       -7.6802200000        1.1657200000
   116    17     3       -0.1380000000        6.7572300000       -6.8940500000       -1.6444900000
   117    17     4        0.3190000000        5.5213300000       -6.9280600000       -1.1567700000
   118    17     5        0.9110000000        5.3313300000       -8.1101200000        0.1556600000
   119    17     2       -0.4610000000        5.5524300000       -9.4102200000       -0.4911000000
   120    17     3       -0.1380000000        5.3018300000       -5.6977600000       -0.6225700000
   121    17     6       -0.5880000000        3.6573300000       -8.1571200000        0.7283600000
   122    17     2       -0.4610000000        3.7201300000       -8.7590200000        3.2616100000
   123    17     3       -0.1380000000        4.6812300000       -7.0896100000       -2.2006200000
   124    17     5        0.9110000000        3.3739300000       -7.6145200000        2.3879600000
   125    17     2       -0.4610000000        4.2010300000       -6.4423600000        2.4833200000
   126    17     3       -0.1380000000        0.8616200000       -7.9875200000        1.7981800000
   127    17     3       -0.1380000000        1.3345300000       -5.9700300000        2.1141100000
   128    17     4        0.3190000000        1.5868300000       -7.1740200000        2.5700600000
   129    17     3       -0.1380000000        1.1870300000       -7.4058200000        3.8646900000
   130    18     2       -0.4610000000       -1.6987300000        7.0134800000        2.9449900000
   131    18     3       -0.1380000000       -2.0667700000       10.0240500000        2.6121200000
   132    18     4        0.3190000000       -3.1927700000        9.3010600000        2.7925200000
   133    18     5        0.9110000000       -2.8713500000        7.6147800000        2.2619400000
   134    18     2       -0.4610000000       -2.8310100000        7.4677800000        0.7645200000
   135    18     3       -0.1380000000       -3.5514100000        9.3150700000        4.0713500000
   136    18     6       -0.5880000000       -4.1155600000        6.4839800000        2.7349300000
   137    18     2       -0.4610000000       -5.4446900000        5.4367800000        4.4207100000
   138    18     3       -0.1380000000       -4.1306300000        9.9538200000        2.0343500000
   139    18     5        0.9110000000       -4.0051100000        5.6098800000        4.3113900000
   140    18     2       -0.4610000000       -3.1053500000        4.4769800000        4.1187700000
   141    18     3       -0.1380000000       -3.3816700000        5.8776800000        6.7442600000
   142    18     3       -0.1380000000       -4.5554400000        7.5724800000        6.1061600000
   143    18     4        0.3190000000       -3.5710100000        6.6507800000        5.7234600000
   144    18     3       -0.1380000000       -2.4397200000        7.3712800000        5.5826600000
   145    19     7       -0.8200000000       -2.6726700000        4.4030800000       -1.0850400000
   146    19     8        0.4100000000       -2.7977800000        5.4142800000       -1.2609600000
   147    19     8        0.4100000000       -3.5541900000        3.8196800000       -1.1959500000
   148    20     7       -0.8200000000       -0.6389100000        2.9305800000       -1.7484900000
   149    20     8        0.4100000000       -0.9444800000        1.9093500000       -1.8985300000
   150    20     8        0.4100000000       -1.3628000000        3.4873800000       -1.3707200000
   151    21     7       -0.8200000000       -2.6320200000        1.0554300000        6.7097600000
   152    21     8        0.4100000000       -3.3098300000        1.6981800000        6.9823600000
   153    21     8        0.4100000000       -3.1446300000        0.2104000000        6.3866600000
   154    22     7       -0.8200000000       -7.5200200000       -2.0045100000        3.8075200000
   155    22     8        0.4100000000       -7.1304900000       -1.8712800000        4.7447300000
   156    22     8        0.4100000000       -7.0884900000       -1.2752600000        3.1900500000
   157    23     7       -0.8200000000       -4.7448100000        1.9993800000       -3.4679200000
   158    23     8        0.4100000000       -4.1577600000        1.2431400000       -3.6225700000
   159    23     8        0.4100000000       -5.3865500000        2.0447800000       -4.2498300000
   160    24     7       -0.8200000000        1.1774300000       -1.0270500000       -1.7782500000
   161    24     8        0.4100000000        1.0532300000       -1.8608000000       -2.3834200000
   162    24     8        0.4100000000        1.4822300000       -0.3709400000       -2.4123700000
   163    25     7       -0.8200000000       -0.2939600000       -4.4555300000       -1.6302900000
   164    25     8        0.4100000000       -1.1626700000       -4.8313100000       -1.9853900000
   165    25     8        0.4100000000        0.5337200000       -5.0385300000       -1.5011600000
   166    26     7       -0.8200000000        5.1808300000        5.4349800000       -6.3320400000
   167    26     8        0.4100000000        5.5875300000        5.6264800000       -5.4066400000
   168    26     8        0.4100000000        4.2247300000        5.6401800000       -6.0996400000
   169    27     7       -0.8200000000        2.5515300000       -3.9940200000       -5.9582400000
   170    27     8        0.4100000000        3.2792300000       -4.0795400000       -6.5730400000
   171    27     8        0.4100000000        2.3537300000       -4.9990900000       -5.9641400000
   172    28     7       -0.8200000000       -1.7094300000        0.4842300000       -1.4910800000
   173    28     8        0.4100000000       -2.4900100000        0.2014800000       -0.8593300000
   174    28     8        0.4100000000       -1.5354500000       -0.3110400000       -2.1168100000
   175    29     7       -0.8200000000        5.2475300000        3.6971800000        6.0047600000
   176    29     8        0.4100000000        5.0990300000        2.7117700000        6.0153600000
   177    29     8        0.4100000000        4.2755300000        4.1328800000        6.0591600000
   178    30     7       -0.8200000000        2.7569300000        4.5126800000        0.8733000000
   179    30     8        0.4100000000        3.5374300000        3.9128800000        0.5412200000
   180    30     8        0.4100000000        2.9335300000        5.5007800000        0.5803200000
   181    31     7       -0.8200000000        7.2600600000        6.5582800000        7.7387600000
   182    31     8        0.4100000000        7.2516600000        6.8956800000        8.7322600000
   183    31     8        0.4100000000        7.0990300000        7.3323800000        7.0576600000
   184    32     7       -0.8200000000       -5.3817700000        2.6656500000        7.6888600000
   185    32     8        0.4100000000       -5.7497000000        2.4406100000        8.5879600000
   186    32     8        0.4100000000       -5.1614100000        3.7235800000        7.8723600000
   187    33     7       -0.8200000000       -5.7202700000        0.8876600000        4.6350800000
   188    33     8        0.4100000000       -5.5633600000        0.7682700000        3.6078100000
   189    33     8        0.4100000000       -4.9875100000        0.2775500000        5.0312600000
   190    34     7       -0.8200000000       -1.0386900000        1.8536800000       -4.5918000000
   191    34     8        0.4100000000       -1.1110600000        1.0126900000       -4.0030800000
   192    34     8        0.4100000000       -0.7955100000        1.3387400000       -5.4728400000
   193    35     7       -0.8200000000        2.6601300000        4.0253800000        4.1393000000
   194    35     8        0.4100000000        2.7042300000        4.9746800000        3.7437300000
   195    35     8        0.4100000000        1.7540300000        3.5699800000        4.0373900000
   196    36     7       -0.8200000000       -5.8181800000       -4.9912900000        5.4939600000
   197    36     8        0.4100000000       -6.1267900000       -5.8453600000        4.9813600000
   198    36     8        0.4100000000       -4.8823800000       -4.7144000000        5.2104600000
   199    37     7       -0.8200000000       -0.9709900000       -2.3023400000       -0.0119300000
   200    37     8        0.4100000000       -0.3383400000       -2.9770300000       -0.4703200000
   201    37     8        0.4100000000       -1.6748400000       -2.8587200000        0.4624400000
   202    38     7       -0.8200000000        4.9950300000       -3.8879400000        2.8372100000
   203    38     8        0.4100000000        4.4665300000       -4.7369300000        2.6633500000
   204    38     8        0.4100000000        4.3077300000       -3.1500900000        2.9946800000
   205    39     7       -0.8200000000       -3.1916000000        4.2798800000       -4.5781300000
   206    39     8        0.4100000000       -3.8493700000        3.5625800000       -4.1491900000
   207    39     8        0.4100000000       -3.8202300000        4.9561800000       -4.9684400000
   208    40     7       -0.8200000000       -5.3579000000       -6.5264500000       -7.4207400000
   209    40     8        0.4100000000       -4.4252400000       -6.3114700000       -7.9242400000
   210    40     8        0.4100000000       -5.0430800000       -6.8706000000       -6.5209400000
   211    41     7       -0.8200000000       -6.7000900000       -7.1352000000        4.2993400000
   212    41     8        0.4100000000       -6.3506300000       -7.9571200000        3.7940400000
   213    41     8        0.4100000000       -7.4894100000       -7.3554200000        4.8994600000
   214    42     7       -0.8200000000        1.0997300000        1.1408000000        6.6243600000
   215    42     8        0.4100000000        1.8402300000        1.7467500000        7.0918600000
   216    42     8        0.4100000000        1.6757300000        0.7310500000        5.8295600000
   217    43     7       -0.8200000000        1.8259300000        0.5742700000       -3.7756800000
   218    43     8        0.4100000000        2.0114300000        0.3290200000       -4.7918900000
   219    43     8        0.4100000000        2.7648300000        0.7925900000       -3.3148400000
   220    44     7       -0.8200000000        1.5511300000       -1.4964500000       -6.2623400000
   221    44     8        0.4100000000        2.4317300000       -1.8309200000       -6.6332400000
   222    44     8        0.4100000000        1.3942300000       -2.1620500000       -5.5167400000
   223    45     7       -0.8200000000       -4.4385400000        2.4670400000       -0.6180500000
   224    45     8        0.4100000000       -4.0652100000        1.5327400000       -0.3596900000
   225    45     8        0.4100000000       -4.8943600000        2.3069900000       -1.5544100000
   226    46     7       -0.8200000000        5.1570300000        3.3489800000        0.0235200000
   227    46     8        0.4100000000        5.8508300000        2.8146900000        0.5569900000
   228    46     8        0.4100000000        5.6958300000        3.9396800000       -0.6495900000
   229    47     7       -0.8200000000       -1.0272300000        4.6694800000        1.0395500000
   230    47     8        0.4100000000       -1.7327400000        4.8035800000        0.2731200000
   231    47     8        0.4100000000       -0.8189400000        5.6174800000        1.4032200000
   232    48     7       -0.8200000000        1.8100300000       -6.2040300000       -1.3300900000
   233    48     8        0.4100000000        2.6903300000       -6.1927600000       -0.8608000000
   234    48     8        0.4100000000        1.7144300000       -7.0560800000       -1.9048000000
   235    49     7       -0.8200000000        0.7338000000        2.0966500000        2.7302200000
   236    49     8        0.4100000000        1.7090300000        1.8762500000        2.9914600000
   237    49     8        0.4100000000        0.1240100000        1.2730200000        2.8023300000
   238    50     7       -0.8200000000       -2.6954000000       -2.0660200000       -2.0662100000
   239    50     8        0.4100000000       -3.6625100000       -2.3983900000       -1.9395200000
   240    50     8        0.4100000000       -1.9164800000       -2.5737200000       -1.7254800000
   241    51     7       -0.8200000000       -1.9104700000        3.2477800000       -7.3730400000
   242    51     8        0.4100000000       -2.1464700000        3.2202800000       -6.3846400000
   243    51     8        0.4100000000       -1.4010700000        4.0983800000       -7.5756400000
   244    52     7       -0.8200000000       -6.5497900000        7.3010800000        1.5033600000
   245    52     8        0.4100000000       -7.6137900000        7.4101800000        1.6249500000
   246    52     8        0.4100000000       -6.2567000000        8.0568800000        0.8551400000
   247    53     7       -0.8200000000        0.7079100000        4.0278800000       -7.5453400000
   248    53     8        0.4100000000        1.2191300000        4.4187800000       -8.3388400000
   249    53     8        0.4100000000        1.3595300000        3.6667800000       -6.8836400000
   250    54     7       -0.8200000000        7.6545400000        5.0424800000        2.2441800000
   251    54     8        0.4100000000        7.4551200000        4.0513800000        1.9030000000
   252    54     8        0.4100000000        6.6947300000        5.3685800000        2.1344600000
   253    55     7       -0.8200000000       -4.6485700000       -1.3845900000        5.6678600000
   254    55     8        0.4100000000       -3.7922400000       -2.0003000000        5.5754600000
   255    55     8        0.4100000000       -5.4508500000       -1.7499800000        6.1505600000
   256    56     7       -0.8200000000       -3.3813500000       -0.0703800000       -4.4499000000
   257    56     8        0.4100000000       -3.0987500000       -0.7686300000       -5.1867400000
   258    56     8        0.4100000000       -3.3931500000       -0.6574300000       -3.5964300000
   259    57     7       -0.8200000000       -0.6949900000        0.2262800000       -6.6029400000
   260    57     8        0.4100000000       -0.0107600000       -0.4756000000       -6.3198400000
   261    57     8        0.4100000000       -1.4805600000       -0.2563600000       -7.0113400000
   262    58     7       -0.8200000000       -7.5919900000        3.8865800000        5.3734600000
   263    58     8        0.4100000000       -6.9270300000        4.6574800000        5.1757600000
   264    58     8        0.4100000000       -8.5059600000        4.3664800000        5.3678600000
   265    59     7       -0.8200000000        7.4092600000       -5.3787300000        2.6258800000
   266    59     8        0.4100000000        8.3273800000       -5.8436000000        2.5116700000
   267    59     8        0.4100000000        6.6980300000       -5.9691900000        2.2072900000
   268    60     7       -0.8200000000        0.7237800000       -3.3429100000       -3.9346600000
   269    60     8        0.4100000000        1.4416300000       -3.8215700000       -4.5378700000
   270    60     8        0.4100000000        0.3941400000       -3.8877200000       -3.1378500000
   271    61     7       -0.8200000000        7.5778900000        2.5283100000        0.8659300000
   272    61     8        0.4100000000        8.4451100000        2.5460100000        0.3679500000
   273    61     8        0.4100000000        7.2189800000        1.6009400000        0.7904100000
   274    62     7       -0.8200000000       -2.2471600000        2.6545000000        2.3584600000
   275    62     8        0.4100000000       -1.7251400000        3.4096800000        1.9194500000
   276    62     8        0.4100000000       -2.4252300000        2.8548900000        3.3702100000
   277    63     7       -0.8200000000        3.1026300000        2.1537000000       -7.4397400000
   278    63     8        0.4100000000        3.3661300000        2.6340700000       -6.5632400000
   279    63     8        0.4100000000        3.7386300000        1.3766300000       -7.5748400000
   280    64     7       -0.8200000000        3.8750300000        0.7682300000       -1.8865200000
   281    64     8        0.4100000000        4.0612300000       -0.2393600000       -1.7003300000
   282    64     8        0.4100000000        4.5692300000        1.4876100000       -2.0317600000
   283    65     7       -0.8200000000        1.4904300000        1.9097300000       -0.5270800000
   284    65     8        0.4100000000        2.3116300000        1.3087500000       -0.7651100000
   285    65     8        0.4100000000        1.0932300000        2.3848800000       -1.3175100000
   286    66     7       -0.8200000000       -1.6142000000        0.2768300000        1.3238500000