LAMMPS data file
# 9 LI molecules
# 9 TF2 molecules
# 50 wat molecules

8 atom types
5 bond types
8 angle types
6 dihedral types

294 atoms
226 bonds
275 angles
270 dihedrals

    0.0000   15.4361 xlo xhi
    0.0000   15.3940 ylo yhi
    0.0000   15.4380 zlo zhi

Masses

1    6.941  # li LI
2   16.000  # o TF2
3   19.000  # f TF2
4   12.010  # c3 TF2
5   32.060  # sy TF2
6   14.010  # ne TF2
7   16.000  # oh wat
8    1.008  # ho wat

Pair Coeffs

1 0.0182660800896 2.126  # li LI
2 0.209859347635 2.960  # o TF2
3 0.0609584251392 3.118  # f TF2
4 0.10932640151 3.400  # c3 TF2
5 0.249833029536 3.564  # sy TF2
6 0.169885665734 3.250  # ne TF2
7 0.155323242893 3.165  # oh wat
8 0.0 0.000  # ho wat

Bond Coeffs

1 492.669820742  1.466  # harmonic TF2 o sy
2 363.556158739  1.344  # harmonic TF2 c3 f
3 248.732854675  1.782  # harmonic TF2 c3 sy
4 256.928561626  1.752  # harmonic TF2 ne sy
5 529.230180349  1.012  # harmonic wat ho oh

Angle Coeffs

1 41.2525855296  108.48  # harmonic TF2 c3 sy o
2 45.2700110592  121.88  # harmonic TF2 o sy o
3 43.0716472128  107.06  # harmonic TF2 ne sy o
4 81.1647052992  109.67  # harmonic TF2 f c3 sy
5 71.2114987968  107.16  # harmonic TF2 f c3 f
6 39.3938063424  103.12  # harmonic TF2 c3 sy ne
7 109.646127418  119.18  # harmonic TF2 sy ne sy
8 37.924854457  113.24  # harmonic wat ho oh ho

Dihedral Coeffs

1 0.143896516992  3 0 0.0  # charmm TF2 f c3 sy o
2 0.143896516992  3 0 0.0  # charmm TF2 f c3 sy ne
3 0.499666059072  3 180 0.0  # charmm TF2 sy ne sy o
4 6.79544648813  1 180 0.0  # charmm TF2 sy ne sy o
5 0.499666059072  3 180 0.0  # charmm TF2 sy ne sy c3
6 6.79544648813  1 180 0.0  # charmm TF2 sy ne sy c3

Atoms

     1     1     1        0.8000000000        0.0000000000        0.0000000000        0.0000000000
     2     2     1        0.8000000000        2.2806400000        6.6645600000        4.1410900000
     3     3     1        0.8000000000        0.0072400000       -3.8663100000        5.4255800000
     4     4     1        0.8000000000       -3.0668500000        1.5089300000       -2.8875000000
     5     5     1        0.8000000000        7.4545000000        7.2549700000       -1.1306000000
     6     6     1        0.8000000000       -6.8631000000       -6.9678300000        3.4492700000
     7     7     1        0.8000000000        5.2533700000       -2.1146100000        4.5166600000
     8     8     1        0.8000000000        0.0363800000        3.1808900000        0.4223000000
     9     9     1        0.8000000000       -4.7104000000        2.7572700000       -6.1816800000
    10    10     2       -0.4610000000        3.1105000000       -2.2110100000       -4.9744600000
    11    10     3       -0.1380000000        6.0302800000       -2.5891100000       -5.1943600000
    12    10     4        0.3190000000        5.3396400000       -3.7282100000       -5.2974100000
    13    10     5        0.9110000000        3.6055000000       -3.3179100000       -5.8486800000
    14    10     2       -0.4610000000        2.7438600000       -4.4235100000       -6.2152200000
    15    10     3       -0.1380000000        5.9356900000       -4.5898100000       -6.1561000000
    16    10     6       -0.5880000000        3.9138400000       -2.8034100000       -7.4538700000
    17    10     2       -0.4610000000        3.2638700000       -1.4523100000       -9.4181000000
    18    10     3       -0.1380000000        5.3497300000       -4.2970100000       -4.0423600000
    19    10     5        0.9110000000        3.4348900000       -1.1726600000       -7.9721100000
    20    10     2       -0.4610000000        2.4730000000       -0.5111500000       -7.0963900000
    21    10     3       -0.1380000000        6.0684400000       -0.9738400000       -8.1454100000
    22    10     3       -0.1380000000        5.1658100000       -0.1184400000       -6.2934900000
    23    10     4        0.3190000000        5.0060200000       -0.2431800000       -7.5882800000
    24    10     3       -0.1380000000        4.9011100000        1.0182400000       -8.0924000000
    25    11     2       -0.4610000000        6.0142300000       -7.5555800000       -5.5534700000
    26    11     3       -0.1380000000        8.6986000000       -6.9501300000       -5.8977300000
    27    11     4        0.3190000000        8.1469000000       -7.3618800000       -7.0340100000
    28    11     5        0.9110000000        6.6342500000       -8.2747400000       -6.6527700000
    29    11     2       -0.4610000000        6.8937000000       -9.7154400000       -6.5981100000
    30    11     3       -0.1380000000        7.9484000000       -6.2192100000       -7.7348900000
    31    11     6       -0.5880000000        5.7755000000       -8.2304100000       -8.1871100000
    32    11     2       -0.4610000000        4.5670400000       -6.1932100000       -8.5880200000
    33    11     3       -0.1380000000        9.0337000000       -8.0768700000       -7.6896800000
    34    11     5        0.9110000000        4.1486000000       -7.5875200000       -8.3093600000
    35    11     2       -0.4610000000        3.5597200000       -8.3291800000       -9.4445600000
    36    11     3       -0.1380000000        3.5289000000       -7.1397600000       -5.6840600000
    37    11     3       -0.1380000000        2.9415500000       -9.0802900000       -6.4567100000
    38    11     4        0.3190000000        3.1038900000       -7.7894300000       -6.8296900000
    39    11     3       -0.1380000000        1.8385900000       -7.3151100000       -7.1818100000
    40    12     2       -0.4610000000       -0.0710000000       -4.5102100000        7.4701800000
    41    12     3       -0.1380000000       -2.2157600000       -3.9024100000       10.5933500000
    42    12     4        0.3190000000       -1.7166000000       -4.7030100000        9.6681900000
    43    12     5        0.9110000000       -0.9038200000       -3.8295100000        8.3798600000
    44    12     2       -0.4610000000       -0.4042500000       -2.5378100000        8.9121500000
    45    12     3       -0.1380000000       -0.8609800000       -5.5513100000       10.2625800000
    46    12     6       -0.5880000000       -2.1704800000       -3.3290100000        7.2533900000
    47    12     2       -0.4610000000       -4.6267000000       -2.8569100000        7.7382000000
    48    12     3       -0.1380000000       -2.7183300000       -5.4520100000        9.2619200000
    49    12     5        0.9110000000       -3.3613000000       -2.1563100000        7.8362600000
    50    12     2       -0.4610000000       -2.9316400000       -1.5678100000        9.0992500000
    51    12     3       -0.1380000000       -2.3761600000        0.0688500000        6.5402000000
    52    12     3       -0.1380000000       -4.4890000000        0.0576100000        6.9278000000
    53    12     4        0.3190000000       -3.4628000000       -0.7535000000        6.6189100000
    54    12     3       -0.1380000000       -3.6555000000       -1.3232000000        5.4263400000
    55    13     2       -0.4610000000        2.7224300000        2.7448300000       -2.7624000000
    56    13     3       -0.1380000000        4.0031800000        5.6200300000       -3.7986200000
    57    13     4        0.3190000000        4.6776700000        4.4232500000       -3.9098100000
    58    13     5        0.9110000000        4.1264100000        3.2814000000       -2.5657000000
    59    13     2       -0.4610000000        4.3630500000        3.9394300000       -1.2957000000
    60    13     3       -0.1380000000        4.3183600000        3.9171000000       -5.0968100000
    61    13     6       -0.5880000000        4.9678400000        1.7856100000       -2.8108000000
    62    13     2       -0.4610000000        7.2529000000        2.4412600000       -2.1547000000
    63    13     3       -0.1380000000        5.9258900000        4.7300900000       -3.8459600000
    64    13     5        0.9110000000        6.2836500000        1.4287100000       -1.7096000000
    65    13     2       -0.4610000000        5.6885200000        1.5651300000       -0.3619000000
    66    13     3       -0.1380000000        7.6905000000       -0.2213500000       -2.9100000000
    67    13     3       -0.1380000000        5.6223100000       -0.9743900000       -2.5187000000
    68    13     4        0.3190000000        6.6688700000       -0.2420700000       -2.0634000000
    69    13     3       -0.1380000000        7.1434000000       -0.8195900000       -0.9825000000
    70    14     2       -0.4610000000       -7.5004000000        3.7838800000        1.2000000000
    71    14     3       -0.1380000000       -6.6092000000        1.0918600000        3.5189200000
    72    14     4        0.3190000000       -7.1782000000        1.4563800000        2.3765000000
    73    14     5        0.9110000000       -6.4287000000        3.0415800000        1.8301000000
    74    14     2       -0.4610000000       -5.1904000000        2.7817000000        1.0685000000
    75    14     3       -0.1380000000       -7.1213000000        0.4435700000        1.4993000000
    76    14     6       -0.5880000000       -5.9300000000        3.9826600000        3.2681900000
    77    14     2       -0.4610000000       -4.2012000000        2.0827300000        3.6420900000
    78    14     3       -0.1380000000       -8.4791000000        1.6000300000        2.6816100000
    79    14     5        0.9110000000       -4.5644000000        3.4462500000        4.1427100000
    80    14     2       -0.4610000000       -3.5114000000        4.4233500000        3.9601700000
    81    14     3       -0.1380000000       -6.0898000000        2.3452400000        5.9562400000
    82    14     3       -0.1380000000       -5.7844000000        4.4362300000        6.3088400000
    83    14     4        0.3190000000       -5.1258000000        3.2950700000        5.8916700000
    84    14     3       -0.1380000000       -4.1243000000        3.0745700000        6.7449900000
    85    15     2       -0.4610000000        0.7029100000        2.7106400000        4.4221700000
    86    15     3       -0.1380000000        0.0091100000        3.5234900000        7.6045800000
    87    15     4        0.3190000000        1.1457200000        3.6342600000        6.9213700000
    88    15     5        0.9110000000        1.2857300000        2.2419100000        5.7107000000
    89    15     2       -0.4610000000        0.8725700000        0.9252800000        6.1934800000
    90    15     3       -0.1380000000        1.0646200000        4.8144000000        6.3311300000
    91    15     6       -0.5880000000        2.9663600000        1.9883700000        5.0630500000
    92    15     2       -0.4610000000        3.9785400000        3.0041800000        2.8836000000
    93    15     3       -0.1380000000        2.1495000000        3.6418900000        7.7841400000
    94    15     5        0.9110000000        3.7542200000        3.4299200000        4.2702700000
    95    15     2       -0.4610000000        2.9617400000        4.5662000000        4.4788000000
    96    15     3       -0.1380000000        6.0094900000        2.5516600000        5.4330600000
    97    15     3       -0.1380000000        4.9251700000        4.0935200000        6.5789400000
    98    15     4        0.3190000000        5.2564800000        3.6885600000        5.3316600000
    99    15     3       -0.1380000000        6.1376200000        4.5800400000        4.7665300000
   100    16     2       -0.4610000000       -3.0716500000       -3.5469100000       -1.2190000000
   101    16     3       -0.1380000000       -4.7119000000       -4.8048100000       -3.9183400000
   102    16     4        0.3190000000       -5.1534000000       -3.9246100000       -3.0276300000
   103    16     5        0.9110000000       -4.3208000000       -4.2579100000       -1.4396000000
   104    16     2       -0.4610000000       -4.2383000000       -5.7365100000       -1.2620000000
   105    16     3       -0.1380000000       -4.7914000000       -2.7387100000       -3.4875200000
   106    16     6       -0.5880000000       -5.4197000000       -3.8907100000       -0.1286000000
   107    16     2       -0.4610000000       -5.1692000000       -1.3765100000       -0.7754000000
   108    16     3       -0.1380000000       -6.5261000000       -4.0195100000       -2.9950000000
   109    16     5        0.9110000000       -5.3995000000       -2.2476100000        0.4036000000
   110    16     2       -0.4610000000       -6.6921000000       -2.2893100000        1.1014000000
   111    16     3       -0.1380000000       -3.5917000000       -0.7426000000        1.6681000000
   112    16     3       -0.1380000000       -2.9431000000       -2.6725100000        1.3992000000
   113    16     4        0.3190000000       -4.0689000000       -2.0242100000        1.6185000000
   114    16     3       -0.1380000000       -4.4049000000       -2.3699100000        2.8084300000
   115    17     2       -0.4610000000        1.5599700000        5.3881400000       -1.8642000000
   116    17     3       -0.1380000000       -1.0650000000        6.9474200000       -4.3107300000
   117    17     4        0.3190000000       -0.1528500000        6.9077400000       -3.3353100000
   118    17     5        0.9110000000        0.3059200000        5.3574200000       -2.5565000000
   119    17     2       -0.4610000000        0.1737500000        4.4863000000       -3.7214400000
   120    17     3       -0.1380000000        0.9293500000        7.3984800000       -3.8786500000
   121    17     6       -0.5880000000       -0.9455800000        4.6516300000       -1.5020000000
   122    17     2       -0.4610000000       -2.7958200000        5.1524300000       -3.2010500000
   123    17     3       -0.1380000000       -0.5031600000        7.8298400000       -2.4200000000
   124    17     5        0.9110000000       -2.6199800000        4.5967600000       -1.8952000000
   125    17     2       -0.4610000000       -2.9287600000        3.1711500000       -1.6837000000
   126    17     3       -0.1380000000       -4.9849000000        5.3579900000       -1.1461000000
   127    17     3       -0.1380000000       -3.3015000000        6.7027500000       -0.7354000000
   128    17     4        0.3190000000       -3.7062000000        5.4367800000       -0.7770000000
   129    17     3       -0.1380000000       -3.6355000000        4.9877700000        0.4599000000
   130    18     2       -0.4610000000       -2.2793000000        7.1652600000        4.1209600000
   131    18     3       -0.1380000000       -2.3699900000        6.2639400000        7.0417200000
   132    18     4        0.3190000000       -2.0890100000        7.5137900000        6.7220100000
   133    18     5        0.9110000000       -1.2933400000        7.5711500000        5.0958900000
   134    18     2       -0.4610000000        0.0219300000        6.9759100000        4.8630000000
   135    18     3       -0.1380000000       -3.2381900000        8.2288000000        6.7375900000
   136    18     6       -0.5880000000       -0.9179900000        9.2297900000        4.7042700000
   137    18     2       -0.4610000000       -2.9363100000       10.4658900000        3.6499400000
   138    18     3       -0.1380000000       -1.3898500000        8.0959000000        7.7261200000
   139    18     5        0.9110000000       -1.5873100000       10.1055900000        3.3435300000
   140    18     2       -0.4610000000       -0.5881900000       11.1723900000        3.2651600000
   141    18     3       -0.1380000000       -0.6327100000        8.4822500000        1.5090000000
   142    18     3       -0.1380000000       -1.6817400000       10.2270900000        0.6418000000
   143    18     4        0.3190000000       -1.6773500000        9.2966900000        1.6636000000
   144    18     3       -0.1380000000       -2.7029700000        8.5075900000        1.5881000000
   145    19     7       -0.8200000000        3.8053700000       -3.3449100000        3.4847500000
   146    19     8        0.4100000000        4.2012500000       -4.0910100000        2.9306400000
   147    19     8        0.4100000000        2.9801200000       -3.0084100000        2.9304400000
   148    20     7       -0.8200000000        7.6835000000       -5.6649100000        1.6245000000
   149    20     8        0.4100000000        8.0015000000       -4.9008100000        1.1356000000
   150    20     8        0.4100000000        6.7583000000       -5.5984100000        1.8074000000
   151    21     7       -0.8200000000        0.0253400000       -0.7999200000        1.8449000000
   152    21     8        0.4100000000        0.6383100000       -1.6147100000        2.0033000000
   153    21     8        0.4100000000       -0.7911400000       -0.8516500000        2.3906000000
   154    22     7       -0.8200000000       -5.3396000000        7.0719500000        2.7968600000
   155    22     8        0.4100000000       -5.6637000000        6.1277900000        2.6350500000
   156    22     8        0.4100000000       -4.4678000000        7.0070200000        3.3041500000
   157    23     7       -0.8200000000        4.5492700000       -0.3140100000        3.7794900000
   158    23     8        0.4100000000        3.8074100000        0.1904100000        4.2895000000
   159    23     8        0.4100000000        4.6345500000        0.1363900000        2.8649800000
   160    24     7       -0.8200000000       -2.9830500000        1.7566100000       -6.2888500000
   161    24     8        0.4100000000       -3.1083300000        1.0090400000       -5.5871200000
   162    24     8        0.4100000000       -2.0311600000        1.8520800000       -6.6588200000
   163    25     7       -0.8200000000       -7.2702000000        7.0665700000       -3.2053700000
   164    25     8        0.4100000000       -6.4960000000        7.5644200000       -3.6055200000
   165    25     8        0.4100000000       -8.1385000000        7.3120900000       -3.6661600000
   166    26     7       -0.8200000000        6.5319100000       -7.2175000000        4.4228600000
   167    26     8        0.4100000000        5.6840900000       -7.4818100000        3.8832900000
   168    26     8        0.4100000000        6.2980800000       -7.2453000000        5.3608900000
   169    27     7       -0.8200000000       -6.2487000000        1.3803800000       -6.2811100000
   170    27     8        0.4100000000       -6.4763000000        0.7446800000       -6.9950000000
   171    27     8        0.4100000000       -7.0572000000        2.0605800000       -6.3130800000
   172    28     7       -0.8200000000       -0.1119000000        0.3645700000       -6.2317800000
   173    28     8        0.4100000000        0.8893800000        0.3658000000       -6.6082100000
   174    28     8        0.4100000000       -0.3825400000       -0.5752500000       -6.4621700000
   175    29     7       -0.8200000000       -0.7606200000        1.9399800000       -3.8821500000
   176    29     8        0.4100000000       -0.5841500000        1.2482700000       -4.6131200000
   177    29     8        0.4100000000       -0.1387600000        2.8013600000       -4.0203900000
   178    30     7       -0.8200000000        3.3077900000       -4.4579100000       -1.0852000000
   179    30     8        0.4100000000        4.2767900000       -4.2246100000       -1.2259000000
   180    30     8        0.4100000000        2.8791300000       -4.4876100000       -2.0405000000
   181    31     7       -0.8200000000       -5.7494000000       -5.3458100000        4.3440000000
   182    31     8        0.4100000000       -4.7620000000       -5.2133100000        4.4643000000
   183    31     8        0.4100000000       -6.2101000000       -4.4973100000        4.6477800000
   184    32     7       -0.8200000000       -6.3755000000        4.3720500000       -3.3972500000
   185    32     8        0.4100000000       -6.6918000000        5.3463000000       -3.3945300000
   186    32     8        0.4100000000       -6.7851000000        3.8837100000       -2.5749000000
   187    33     7       -0.8200000000       -6.2683000000       -7.4042000000       -0.2675000000
   188    33     8        0.4100000000       -6.4928000000       -6.7542100000        0.4606000000
   189    33     8        0.4100000000       -5.2921000000       -7.0645600000       -0.4953000000
   190    34     7       -0.8200000000        5.9700600000       -6.7975100000       -1.9161000000
   191    34     8        0.4100000000        6.0724300000       -5.9616100000       -1.3287000000
   192    34     8        0.4100000000        5.0323200000       -6.7574100000       -2.3794000000
   193    35     7       -0.8200000000       -3.0348500000        0.2154100000       -1.3566000000
   194    35     8        0.4100000000       -2.5310600000       -0.6750800000       -1.4527000000
   195    35     8        0.4100000000       -4.0255000000       -0.0837200000       -1.1635000000
   196    36     7       -0.8200000000        0.3058500000       -1.8655100000        5.0213400000
   197    36     8        0.4100000000       -0.3324700000       -1.1462500000        5.4564800000
   198    36     8        0.4100000000        1.2146200000       -1.4684300000        5.0215800000
   199    37     7       -0.8200000000        1.3368300000        1.5581300000        2.0029000000
   200    37     8        0.4100000000        1.0085300000        0.6298600000        2.1740000000
   201    37     8        0.4100000000        1.1324900000        2.0318000000        2.9042000000
   202    38     7       -0.8200000000       -1.1909600000       -1.7279100000       -0.7840000000
   203    38     8        0.4100000000       -0.9375800000       -1.8784100000       -1.7558000000
   204    38     8        0.4100000000       -1.7857700000       -2.5359100000       -0.4471000000
   205    39     7       -0.8200000000        2.1479000000        3.7201500000        0.6260000000
   206    39     8        0.4100000000        2.9954200000        3.6675300000        0.0561000000
   207    39     8        0.4100000000        2.2128700000        3.1399300000        1.4802000000
   208    40     7       -0.8200000000        5.5015000000       -2.1774100000        1.2652000000
   209    40     8        0.4100000000        6.0705500000       -2.0456100000        2.1113000000
   210    40     8        0.4100000000        4.8520400000       -1.4407900000        1.1518000000
   211    41     7       -0.8200000000        3.2851000000       -6.8879100000       -2.6493000000
   212    41     8        0.4100000000        3.1053700000       -7.6194000000       -3.3458000000
   213    41     8        0.4100000000        2.7499800000       -6.0654100000       -3.0277500000
   214    42     7       -0.8200000000       -0.1392400000       -4.3809100000       -1.6275000000
   215    42     8        0.4100000000       -1.1609300000       -4.6773100000       -1.5051000000
   216    42     8        0.4100000000        0.4063900000       -4.3406100000       -0.7266000000
   217    43     7       -0.8200000000        1.6615300000       -5.1114100000        0.8791000000
   218    43     8        0.4100000000        2.2674700000       -4.7654100000        0.0893000000
   219    43     8        0.4100000000        1.9225700000       -6.1261100000        0.8736000000
   220    44     7       -0.8200000000        1.8370100000       -2.6288100000        1.7756000000
   221    44     8        0.4100000000        1.9484900000       -2.0584100000        0.8962000000
   222    44     8        0.4100000000        1.6069000000       -3.5730100000        1.3499000000
   223    45     7       -0.8200000000        2.0699300000       -6.6805100000        3.6169600000
   224    45     8        0.4100000000        1.1233800000       -6.5034100000        3.2011100000
   225    45     8        0.4100000000        2.2591500000       -5.8931100000        4.2328100000
   226    46     7       -0.8200000000       -0.7360400000        4.7721400000        1.7215000000
   227    46     8        0.4100000000       -0.2876300000        5.6643200000        1.9667000000
   228    46     8        0.4100000000       -1.4580200000        4.6144300000        2.4620100000
   229    47     7       -0.8200000000        2.1207000000       -4.5913100000        5.3665000000
   230    47     8        0.4100000000        2.7289400000       -3.8837100000        4.9071800000
   231    47     8        0.4100000000        2.4214700000       -4.5992100000        6.3020100000
   232    48     7       -0.8200000000       -4.7897000000        2.1524100000       -3.8980200000
   233    48     8        0.4100000000       -5.4907000000        1.6200300000       -4.4190500000
   234    48     8        0.4100000000       -5.2290000000        3.0590700000       -3.6654700000
   235    49     7       -0.8200000000        0.5549400000        1.7374400000       -1.4158000000
   236    49     8        0.4100000000        1.4558000000        1.8314600000       -1.8771000000
   237    49     8        0.4100000000       -0.2997900000        1.7653000000       -2.0188000000
   238    50     7       -0.8200000000       -4.3863000000        4.5923100000       -5.4779000000
   239    50     8        0.4100000000       -3.6848000000        5.1726500000       -5.0693400000
   240    50     8        0.4100000000       -5.2345000000        4.7286500000       -4.8578800000
   241    51     7       -0.8200000000        5.7997300000       -3.4670100000        6.1608000000
   242    51     8        0.4100000000        5.1608500000       -3.4495100000        6.9840100000
   243    51     8        0.4100000000        5.7753500000       -4.4408100000        5.8839400000
   244    52     7       -0.8200000000        2.4100300000       -7.6771100000       -0.1865000000
   245    52     8        0.4100000000        2.8326400000       -7.2541000000       -1.0371000000
   246    52     8        0.4100000000        1.6640100000       -8.2739100000       -0.5193000000
   247    53     7       -0.8200000000        6.7352000000        5.4180600000       -0.4339000000
   248    53     8        0.4100000000        7.1780000000        4.7183200000        0.2038000000
   249    53     8        0.4100000000        6.0203700000        5.0019000000       -1.0353000000
   250    54     7       -0.8200000000        7.1963000000        2.9499300000       -6.5523500000
   251    54     8        0.4100000000        6.1722700000        2.8019200000       -6.5525900000
   252    54     8        0.4100000000        7.3741000000        3.9867900000       -6.6005200000
   253    55     7       -0.8200000000       -1.3662700000        1.5402200000        0.6629000000
   254    55     8        0.4100000000       -1.6072600000        1.4180100000        1.6531000000
   255    55     8        0.4100000000       -2.1554300000        1.2903200000        0.1392000000
   256    56     7       -0.8200000000       -6.6595000000       -3.0326100000        5.6827200000
   257    56     8        0.4100000000       -7.5558000000       -3.4224100000        6.1083300000
   258    56     8        0.4100000000       -5.9349000000       -2.8856100000        6.4144600000
   259    57     7       -0.8200000000        1.8503400000       -0.9306200000       -0.4778000000
   260    57     8        0.4100000000        2.6531900000       -0.4362300000       -0.0481000000
   261    57     8        0.4100000000        1.8812000000       -0.6392500000       -1.5143000000
   262    58     7       -0.8200000000        0.1894500000       -1.7276100000       -3.4136000000
   263    58     8        0.4100000000        0.0448600000       -2.1822100000       -4.2557100000
   264    58     8        0.4100000000        0.9872700000       -1.1181000000       -3.5222500000
   265    59     7       -0.8200000000       -2.7525800000       -0.2470600000       -4.1480000000
   266    59     8        0.4100000000       -2.8996700000       -1.0157900000       -4.8524500000
   267    59     8        0.4100000000       -1.8209200000       -0.3100000000       -3.8276500000
   268    60     7       -0.8200000000       -1.5708400000        1.3831000000        3.3267400000
   269    60     8        0.4100000000       -0.7648100000        1.6634600000        3.8644100000
   270    60     8        0.4100000000       -2.4835700000        1.7387900000        3.6553600000
   271    61     7       -0.8200000000        1.6697500000       -4.9794100000       -3.6004200000
   272    61     8        0.4100000000        1.6234700000       -4.7606100000       -4.5695300000
   273    61     8        0.4100000000        1.0028800000       -4.5565100000       -2.9986000000
   274    62     7       -0.8200000000        1.6636600000        6.1480400000        2.1157000000
   275    62     8        0.4100000000        1.9414600000        6.8753100000        1.4087000000
   276    62     8        0.4100000000        1.8826500000        5.3058800000        1.6048000000
   277    63     7       -0.8200000000        2.7033400000       -0.2090000000       -2.9505000000
   278    63     8        0.4100000000        3.2138900000       -0.8072300000       -3.5656700000
   279    63     8        0.4100000000        3.0031200000        0.7602300000       -3.2062900000
   280    64     7       -0.8200000000        7.1208000000       -2.2469100000        3.4845700000
   281    64     8        0.4100000000        7.7435000000       -2.4991100000        4.2335100000
   282    64     8        0.4100000000        7.7007000000       -1.9891100000        2.6752500000
   283    65     7       -0.8200000000        5.9228900000       -3.9799100000       -0.8892000000
   284    65     8        0.4100000000        6.1966100000       -3.4617100000       -1.7113000000
   285    65     8        0.4100000000        5.7768800000       -3.2700100000       -0.1498000000
   286    66     7       -0.8200000000        4.5903100000       -5.1240100000        1.8279000000