LAMMPS data file
# 9 LI molecules
# 9 TF2 molecules
# 50 wat molecules

8 atom types
5 bond types
8 angle types
6 dihedral types

294 atoms
226 bonds
275 angles
270 dihedrals

    0.0000   15.7932 xlo xhi
    0.0000   15.7932 ylo yhi
    0.0000   15.7932 zlo zhi

Masses

1    6.941  # li LI
2   16.000  # o TF2
3   19.000  # f TF2
4   12.010  # c3 TF2
5   32.060  # sy TF2
6   14.010  # ne TF2
7   16.000  # oh wat
8    1.008  # ho wat

Pair Coeffs

1 0.0182660800896 2.126  # li LI
2 0.209859347635 2.960  # o TF2
3 0.0609584251392 3.118  # f TF2
4 0.10932640151 3.400  # c3 TF2
5 0.249833029536 3.564  # sy TF2
6 0.169885665734 3.250  # ne TF2
7 0.155323242893 3.165  # oh wat
8 0.0 0.000  # ho wat

Bond Coeffs

1 492.669820742  1.466  # harmonic TF2 o sy
2 363.556158739  1.344  # harmonic TF2 c3 f
3 248.732854675  1.782  # harmonic TF2 c3 sy
4 256.928561626  1.752  # harmonic TF2 ne sy
5 529.230180349  1.012  # harmonic wat ho oh

Angle Coeffs

1 41.2525855296  108.48  # harmonic TF2 c3 sy o
2 45.2700110592  121.88  # harmonic TF2 o sy o
3 43.0716472128  107.06  # harmonic TF2 ne sy o
4 81.1647052992  109.67  # harmonic TF2 f c3 sy
5 71.2114987968  107.16  # harmonic TF2 f c3 f
6 39.3938063424  103.12  # harmonic TF2 c3 sy ne
7 109.646127418  119.18  # harmonic TF2 sy ne sy
8 37.924854457  113.24  # harmonic wat ho oh ho

Dihedral Coeffs

1 0.143896516992  3 0 0.0  # charmm TF2 f c3 sy o
2 0.143896516992  3 0 0.0  # charmm TF2 f c3 sy ne
3 0.499666059072  3 180 0.0  # charmm TF2 sy ne sy o
4 6.79544648813  1 180 0.0  # charmm TF2 sy ne sy o
5 0.499666059072  3 180 0.0  # charmm TF2 sy ne sy c3
6 6.79544648813  1 180 0.0  # charmm TF2 sy ne sy c3

Atoms

     1     1     1        0.8000000000        0.0000000000        0.0000000000        0.0000000000
     2     2     1        0.8000000000        0.0823700000       -5.3170000000        1.5282000000
     3     3     1        0.8000000000        6.3502800000        2.5458300000       -7.2884900000
     4     4     1        0.8000000000        2.9324200000       -5.9789900000        3.4574000000
     5     5     1        0.8000000000       -7.1354200000       -6.3993200000        4.0821000000
     6     6     1        0.8000000000       -0.7317200000       -2.2184800000       -7.3672100000
     7     7     1        0.8000000000       -5.4230800000       -7.2873000000       -2.3731900000
     8     8     1        0.8000000000        7.1254800000        0.9031600000        1.7520000000
     9     9     1        0.8000000000       -7.6317200000        5.2537000000       -2.0044800000
    10    10     2       -0.4610000000       -0.3819800000        1.2720100000       -4.9484600000
    11    10     3       -0.1380000000       -0.7783600000        3.2123000000       -7.4741600000
    12    10     4        0.3190000000        0.2721000000        3.5171000000       -6.6798500000
    13    10     5        0.9110000000        0.6650200000        2.0573700000       -5.6084200000
    14    10     2       -0.4610000000        1.8309300000        2.3969100000       -4.7623600000
    15    10     3       -0.1380000000        1.1179400000        3.8770000000       -7.6157000000
    16    10     6       -0.5880000000        1.2678600000        0.9808200000       -6.7814900000
    17    10     2       -0.4610000000        2.3550600000       -1.4691900000       -6.7651600000
    18    10     3       -0.1380000000       -0.2334500000        4.6100000000       -5.9609300000
    19    10     5        0.9110000000        2.4939200000       -0.1015900000       -6.2875400000
    20    10     2       -0.4610000000        3.7286400000        0.5116000000       -6.9048900000
    21    10     3       -0.1380000000        3.4533100000       -1.5008700000       -4.2892300000
    22    10     3       -0.1380000000        1.5422200000       -0.6891200000       -3.8007000000
    23    10     4        0.3190000000        2.6615700000       -0.4160400000       -4.4147100000
    24    10     3       -0.1380000000        3.3417100000        0.5787600000       -3.7691700000
    25    11     2       -0.4610000000        5.8494800000        6.9396000000        7.8006000000
    26    11     3       -0.1380000000        7.6646800000        9.1973100000       10.1757600000
    27    11     4        0.3190000000        7.1775800000        8.8597400000        9.0085400000
    28    11     5        0.9110000000        6.3191800000        7.2980000000        9.1375100000
    29    11     2       -0.4610000000        5.2812800000        7.3145000000       10.2007800000
    30    11     3       -0.1380000000        6.3918800000        9.8106200000        8.4875200000
    31    11     6       -0.5880000000        7.5713800000        6.2428000000        9.7423200000
    32    11     2       -0.4610000000        7.9255800000        3.8193000000        9.2623000000
    33    11     3       -0.1380000000        8.2206800000        8.7849000000        8.1681400000
    34    11     5        0.9110000000        8.3058800000        5.0857000000        8.6711500000
    35    11     2       -0.4610000000        7.9190800000        5.2156000000        7.2610700000
    36    11     3       -0.1380000000       10.2350400000        6.6989000000        8.1499600000
    37    11     3       -0.1380000000       10.8058500000        4.6071000000        8.1235800000
    38    11     4        0.3190000000       10.0455200000        5.5472000000        8.7925900000
    39    11     3       -0.1380000000       10.5277600000        5.6774000000       10.0610000000
    40    12     2       -0.4610000000        0.2093600000       -7.3699000000        7.0090900000
    41    12     3       -0.1380000000       -2.1221100000       -9.0899000000        8.3850700000
    42    12     4        0.3190000000       -2.3326900000       -8.4770000000        7.1764000000
    43    12     5        0.9110000000       -0.7717300000       -8.1257000000        6.2540600000
    44    12     2       -0.4610000000       -1.3444100000       -7.7011000000        4.9295200000
    45    12     3       -0.1380000000       -3.1261400000       -9.3403000000        6.5068000000
    46    12     6       -0.5880000000        0.2177700000       -9.5564000000        5.9978100000
    47    12     2       -0.4610000000        0.7178400000       -9.6723000000        3.5202000000
    48    12     3       -0.1380000000       -3.0602700000       -7.3805000000        7.4763300000
    49    12     5        0.9110000000        0.1465200000      -10.5748000000        4.5451000000
    50    12     2       -0.4610000000        0.9504100000      -11.6567000000        5.0015600000
    51    12     3       -0.1380000000       -2.2938300000      -11.6301000000        5.1880200000
    52    12     3       -0.1380000000       -1.5742300000      -11.9802000000        3.1446000000
    53    12     4        0.3190000000       -1.4645100000      -11.1226000000        4.1435000000
    54    12     3       -0.1380000000       -2.1490100000      -10.0105000000        3.6731000000
    55    13     2       -0.4610000000        5.3805800000       -0.4565700000        1.4470000000
    56    13     3       -0.1380000000        4.1193800000       -2.9608700000       -1.3127600000
    57    13     4        0.3190000000        4.9869800000       -2.0348900000       -0.7552000000
    58    13     5        0.9110000000        4.3897800000       -1.3345700000        0.8141000000
    59    13     2       -0.4610000000        3.7759700000       -2.3806500000        1.6443000000
    60    13     3       -0.1380000000        6.2174800000       -2.5801600000       -0.5496000000
    61    13     6       -0.5880000000        3.0196600000       -0.2325700000        0.4815000000
    62    13     2       -0.4610000000        1.0627200000        0.6506500000        1.8391000000
    63    13     3       -0.1380000000        4.9636800000       -1.1180900000       -1.7276700000
    64    13     5        0.9110000000        2.5374200000        0.8908500000        1.7394000000
    65    13     2       -0.4610000000        3.3802400000        0.5664300000        2.8867000000
    66    13     3       -0.1380000000        2.3666400000        3.6748000000        1.5225000000
    67    13     3       -0.1380000000        2.9802000000        2.6107700000       -0.2717000000
    68    13     4        0.3190000000        3.0582100000        2.5889900000        1.0698000000
    69    13     3       -0.1380000000        4.3450800000        2.8578200000        1.4363000000
    70    14     2       -0.4610000000       -1.3338900000       -1.4696700000        4.2486000000
    71    14     3       -0.1380000000        0.5778100000        1.0335900000        4.7749300000
    72    14     4        0.3190000000       -0.5213800000        0.7414000000        5.5349000000
    73    14     5        0.9110000000       -1.7452100000       -0.1662900000        4.6078000000
    74    14     2       -0.4610000000       -1.9839500000        0.6236400000        3.4642000000
    75    14     3       -0.1380000000       -0.0409800000        0.1192600000        6.5387000000
    76    14     6       -0.5880000000       -3.3500800000       -0.3800300000        5.3484800000
    77    14     2       -0.4610000000       -4.3393400000       -1.9756400000        6.8888000000
    78    14     3       -0.1380000000       -1.1260300000        1.9128900000        5.9115600000
    79    14     5        0.9110000000       -3.5362500000       -0.8137800000        7.0179700000
    80    14     2       -0.4610000000       -2.1680100000       -1.2151000000        7.4110400000
    81    14     3       -0.1380000000       -5.4852700000        0.8071100000        7.4974600000
    82    14     3       -0.1380000000       -3.6384100000        1.6578700000        7.9873700000
    83    14     4        0.3190000000       -4.3158000000        0.4631100000        8.0429200000
    84    14     3       -0.1380000000       -4.3961200000        0.0943900000        9.3157200000
    85    15     2       -0.4610000000       -1.9121200000       -5.8929500000        0.3272000000
    86    15     3       -0.1380000000       -4.8659300000       -8.0127000000        1.2202000000
    87    15     4        0.3190000000       -3.9247000000       -7.1712000000        1.4500000000
    88    15     5        0.9110000000       -2.8856700000       -6.9333900000        0.0585000000
    89    15     2       -0.4610000000       -3.5989400000       -6.8880700000       -1.2180600000
    90    15     3       -0.1380000000       -4.5825400000       -5.9993600000        1.7572000000
    91    15     6       -0.5880000000       -1.8661200000       -8.4319000000        0.0758000000
    92    15     2       -0.4610000000       -2.4784400000      -10.7722000000        0.8194000000
    93    15     3       -0.1380000000       -3.2475600000       -7.6492000000        2.5814000000
    94    15     5        0.9110000000       -2.4670900000      -10.0067000000       -0.4136000000
    95    15     2       -0.4610000000       -3.7532800000       -9.7072000000       -0.8807000000
    96    15     3       -0.1380000000       -0.1091900000      -10.6189000000       -1.2685400000
    97    15     3       -0.1380000000       -1.6006800000      -10.0746000000       -2.8874000000
    98    15     4        0.3190000000       -1.3387600000      -10.7218000000       -1.6671700000
    99    15     3       -0.1380000000       -1.5380500000      -12.0390000000       -1.8149700000
   100    16     2       -0.4610000000       -3.4956700000       -2.9060800000       -4.1386100000
   101    16     3       -0.1380000000       -4.5906000000       -3.8154100000       -0.5889000000
   102    16     4        0.3190000000       -3.7594000000       -3.2644600000       -1.5791000000
   103    16     5        0.9110000000       -4.5204200000       -3.4976100000       -3.1987700000
   104    16     2       -0.4610000000       -5.8160800000       -2.9490800000       -3.2214000000
   105    16     3       -0.1380000000       -3.7116500000       -1.9725800000       -1.1808000000
   106    16     6       -0.5880000000       -4.6517700000       -5.1911700000       -3.5715200000
   107    16     2       -0.4610000000       -2.6753600000       -5.5787600000       -5.3810400000
   108    16     3       -0.1380000000       -2.5267000000       -3.6993100000       -1.5181700000
   109    16     5        0.9110000000       -4.0967600000       -5.8457000000       -5.1595300000
   110    16     2       -0.4610000000       -4.7134200000       -7.2193000000       -5.0951000000
   111    16     3       -0.1380000000       -4.7579500000       -5.5983200000       -7.6978700000
   112    16     3       -0.1380000000       -4.4991500000       -3.6901600000       -6.5876700000
   113    16     4        0.3190000000       -4.9453200000       -4.9181900000       -6.5233700000
   114    16     3       -0.1380000000       -6.2692200000       -4.9196600000       -6.3355300000
   115    17     2       -0.4610000000       -6.1169200000        3.7254000000       -2.7179200000
   116    17     3       -0.1380000000       -5.2749900000        0.9681600000       -3.7043900000
   117    17     4        0.3190000000       -4.5041400000        1.6086300000       -2.9086100000
   118    17     5        0.9110000000       -5.5826300000        2.6527500000       -1.9054900000
   119    17     2       -0.4610000000       -5.1979400000        2.9260800000       -0.5169000000
   120    17     3       -0.1380000000       -3.8034800000        0.7143500000       -2.1736500000
   121    17     6       -0.5880000000       -6.9799200000        1.5190300000       -1.4950400000
   122    17     2       -0.4610000000       -9.2749200000        1.3256700000       -0.5719000000
   123    17     3       -0.1380000000       -3.5814600000        2.3576500000       -3.6247900000
   124    17     5        0.9110000000       -8.5771200000        2.1121100000       -1.5628900000
   125    17     2       -0.4610000000       -8.4743200000        3.5567000000       -1.2349500000
   126    17     3       -0.1380000000       -8.0724200000        2.4404400000       -4.0796700000
   127    17     3       -0.1380000000      -10.1639200000        2.5216900000       -3.5909200000
   128    17     4        0.3190000000       -9.0312200000        1.9179400000       -3.3013700000
   129    17     3       -0.1380000000       -9.1656200000        0.5920200000       -3.5217600000
   130    18     2       -0.4610000000        1.6311100000        7.5357000000       -2.2646900000
   131    18     3       -0.1380000000        1.5080000000        4.6951000000       -3.4559300000
   132    18     4        0.3190000000        2.6316100000        5.1698000000       -3.0241800000
   133    18     5        0.9110000000        2.5788400000        6.9819000000       -3.2159100000
   134    18     2       -0.4610000000        2.4484600000        7.2353000000       -4.6501900000
   135    18     3       -0.1380000000        2.7280800000        4.9645000000       -1.7020900000
   136    18     6       -0.5880000000        4.1104800000        7.5273000000       -2.7376200000
   137    18     2       -0.4610000000        3.9359200000        9.4145000000       -1.1431400000
   138    18     3       -0.1380000000        3.6863100000        4.7784000000       -3.8529700000
   139    18     5        0.9110000000        4.3338800000        9.2749600000       -2.5934000000
   140    18     2       -0.4610000000        5.6577800000        9.7367100000       -2.7819700000
   141    18     3       -0.1380000000        3.4275100000       11.4439600000       -3.7557700000
   142    18     3       -0.1380000000        1.8469400000       10.0359300000       -3.4796700000
   143    18     4        0.3190000000        3.1279500000       10.1331400000       -3.7874700000
   144    18     3       -0.1380000000        3.2497200000        9.7593500000       -5.0785000000
   145    19     7       -0.8200000000        1.4432300000       -7.2339000000        2.6483000000
   146    19     8        0.4100000000        1.0291200000       -7.4487000000        1.7500000000
   147    19     8        0.4100000000        1.2409300000       -8.1742000000        3.0616000000
   148    20     7       -0.8200000000       -6.8039200000       -2.9450700000        5.2513700000
   149    20     8        0.4100000000       -7.6418200000       -2.4703400000        5.6841700000
   150    20     8        0.4100000000       -6.0384200000       -2.3870200000        5.7064300000
   151    21     7       -0.8200000000        7.4878800000       -0.9972400000        3.2671000000
   152    21     8        0.4100000000        7.0095800000       -1.8581800000        3.3530000000
   153    21     8        0.4100000000        8.5173800000       -1.1512600000        3.5072000000
   154    22     7       -0.8200000000        7.5633800000        5.5068000000        2.0384000000
   155    22     8        0.4100000000        6.9812800000        6.2579000000        1.6724000000
   156    22     8        0.4100000000        7.7686800000        5.7765000000        3.0244000000
   157    23     7       -0.8200000000        0.6347300000        1.4770000000       -1.4502800000
   158    23     8        0.4100000000        0.1039000000        1.6486600000       -2.3114600000
   159    23     8        0.4100000000        1.5497200000        1.9616300000       -1.4973200000
   160    24     7       -0.8200000000       -3.3057300000       -3.7016800000        4.8315500000
   161    24     8        0.4100000000       -3.0274500000       -2.8609100000        4.3529000000
   162    24     8        0.4100000000       -3.3741200000       -3.4415800000        5.8206000000
   163    25     7       -0.8200000000        0.2456100000       -2.0757500000       -0.9775000000
   164    25     8        0.4100000000       -0.5663900000       -2.5817600000       -1.4249300000
   165    25     8        0.4100000000        1.0309000000       -1.8881400000       -1.6492500000
   166    26     7       -0.8200000000        3.3075200000        6.8711000000        5.2104700000
   167    26     8        0.4100000000        3.6730600000        6.7186000000        6.1366600000
   168    26     8        0.4100000000        2.3414700000        6.5352000000        5.2526800000
   169    27     7       -0.8200000000       -5.4001500000        5.1781000000        3.3596000000
   170    27     8        0.4100000000       -4.3718000000        5.1094000000        2.9790000000
   171    27     8        0.4100000000       -6.0345200000        4.8293000000        2.6995000000
   172    28     7       -0.8200000000        6.8490800000        2.9266600000        2.4514000000
   173    28     8        0.4100000000        6.1123800000        2.8178800000        3.2139000000
   174    28     8        0.4100000000        6.8421800000        3.8266000000        2.0140000000
   175    29     7       -0.8200000000       -1.2406200000       -1.2600500000       -5.6131800000
   176    29     8        0.4100000000       -2.0616200000       -1.6292200000       -5.0808200000
   177    29     8        0.4100000000       -1.0280900000       -0.3026900000       -5.2688000000
   178    30     7       -0.8200000000        5.1445800000       -2.4554100000        4.2506000000
   179    30     8        0.4100000000        4.7488800000       -1.6131700000        4.6578000000
   180    30     8        0.4100000000        4.4000800000       -3.1470800000        4.3187000000
   181    31     7       -0.8200000000        3.9846500000       -3.5144200000       -6.2959500000
   182    31     8        0.4100000000        4.3635800000       -3.2985100000       -5.3634900000
   183    31     8        0.4100000000        3.2554300000       -2.8474900000       -6.4867200000
   184    32     7       -0.8200000000        3.6811500000       -0.6238100000        5.9727600000
   185    32     8        0.4100000000        3.5442300000       -0.4803300000        6.9949800000
   186    32     8        0.4100000000        3.5531800000        0.2844300000        5.4857100000
   187    33     7       -0.8200000000        2.3234300000       -4.8405100000        7.2067200000
   188    33     8        0.4100000000        1.8324300000       -5.5839600000        6.7450000000
   189    33     8        0.4100000000        2.9754200000       -5.3264500000        7.7938600000
   190    34     7       -0.8200000000       -6.6476200000        1.0290300000        1.2621000000
   191    34     8        0.4100000000       -5.9747700000        0.3363700000        1.6405000000
   192    34     8        0.4100000000       -6.4454200000        1.6133600000        0.4880000000
   193    35     7       -0.8200000000        7.2928800000       -5.3532100000        5.4759800000
   194    35     8        0.4100000000        7.6116800000       -4.4647900000        5.1309200000
   195    35     8        0.4100000000        6.7086800000       -5.1477000000        6.3020800000
   196    36     7       -0.8200000000        0.5742100000       -2.7782600000        7.0662800000
   197    36     8        0.4100000000        1.2708900000       -3.3622700000        7.5254500000
   198    36     8        0.4100000000        0.9364400000       -2.5102100000        6.1620200000
   199    37     7       -0.8200000000       -0.5053800000       -4.6156200000       -6.4401100000
   200    37     8        0.4100000000       -0.3068100000       -5.1246100000       -7.2855600000
   201    37     8        0.4100000000       -1.3234500000       -4.9500600000       -5.9864800000
   202    38     7       -0.8200000000        4.6656800000        3.8352000000       -6.6359700000
   203    38     8        0.4100000000        4.1478800000        4.6411000000       -6.7930100000
   204    38     8        0.4100000000        4.2998800000        3.3472000000       -5.8035200000
   205    39     7       -0.8200000000       -6.6806200000        2.3608600000        4.2515000000
   206    39     8        0.4100000000       -7.3579200000        2.4490200000        3.4830000000
   207    39     8        0.4100000000       -6.2255200000        3.2696000000        4.1571000000
   208    40     7       -0.8200000000       -5.3323700000       -5.6001100000        4.9400300000
   209    40     8        0.4100000000       -5.9144200000       -4.9774100000        5.4765700000
   210    40     8        0.4100000000       -4.3957700000       -5.5080400000        5.2555300000
   211    41     7       -0.8200000000       -5.4163600000       -0.0184400000        3.4681000000
   212    41     8        0.4100000000       -4.5212200000       -0.1236000000        3.9060000000
   213    41     8        0.4100000000       -5.8897300000        0.7544000000        3.9587000000
   214    42     7       -0.8200000000       -1.1734200000       -5.5248100000        3.2501000000
   215    42     8        0.4100000000       -2.0228200000       -5.0284900000        3.4363000000
   216    42     8        0.4100000000       -1.2246500000       -6.3972300000        3.8524000000
   217    43     7       -0.8200000000        0.8209900000       -6.6163200000       -0.1399000000
   218    43     8        0.4100000000        0.0405900000       -6.9063200000       -0.6596000000
   219    43     8        0.4100000000        1.6905300000       -6.9718000000       -0.4496000000
   220    44     7       -0.8200000000        5.4578800000       -3.9960300000        7.0605400000
   221    44     8        0.4100000000        5.1444800000       -4.1079300000        8.0363000000
   222    44     8        0.4100000000        5.4140800000       -3.0425000000        6.6676700000
   223    45     7       -0.8200000000        1.6394100000       -1.9094900000        4.1566000000
   224    45     8        0.4100000000        2.5019100000       -1.5925700000        4.5667000000
   225    45     8        0.4100000000        1.2649700000       -1.0981900000        3.7095000000
   226    46     7       -0.8200000000       -5.7953100000        6.6467000000       -3.1266900000
   227    46     8        0.4100000000       -5.5716800000        6.9402000000       -4.1014400000
   228    46     8        0.4100000000       -5.3961000000        5.7255000000       -3.0141200000
   229    47     7       -0.8200000000        4.4869800000       -5.3641100000        4.6199000000
   230    47     8        0.4100000000        4.3388800000       -4.9149600000        5.5212800000
   231    47     8        0.4100000000        5.4435800000       -5.6519500000        4.5329000000
   232    48     7       -0.8200000000       -7.0840200000        6.0860000000       -0.2563000000
   233    48     8        0.4100000000       -7.3704200000        5.7474000000        0.6851000000
   234    48     8        0.4100000000       -6.1015200000        6.5376000000       -0.3273000000
   235    49     7       -0.8200000000        7.2950800000        6.3277000000        4.6865000000
   236    49     8        0.4100000000        7.3275800000        5.7663000000        5.6093200000
   237    49     8        0.4100000000        8.0361800000        6.9355000000        4.7872400000
   238    50     7       -0.8200000000        3.2228200000       -5.0460400000        1.3239000000
   239    50     8        0.4100000000        3.1539000000       -4.0500600000        1.3202000000
   240    50     8        0.4100000000        3.8129700000       -5.4239200000        0.6739000000
   241    51     7       -0.8200000000       -6.0995200000        7.5779000000        4.4666000000
   242    51     8        0.4100000000       -5.2776500000        7.7598000000        5.0705900000
   243    51     8        0.4100000000       -5.7640800000        6.7839000000        3.8955000000
   244    52     7       -0.8200000000        7.1301800000        2.6656600000        6.3183100000
   245    52     8        0.4100000000        6.8667800000        3.3704000000        5.6151000000
   246    52     8        0.4100000000        8.0100800000        2.2324000000        6.0632100000
   247    53     7       -0.8200000000       -7.2654200000       -4.4705600000       -0.5718000000
   248    53     8        0.4100000000       -7.3281200000       -5.3174000000       -1.0609400000
   249    53     8        0.4100000000       -6.9420200000       -3.7614600000       -1.2006500000
   250    54     7       -0.8200000000        0.3630300000       -3.3567800000        1.7291000000
   251    54     8        0.4100000000        0.9555700000       -2.9488100000        2.4832000000
   252    54     8        0.4100000000        0.4514400000       -2.8812700000        0.7538000000
   253    55     7       -0.8200000000        2.9586200000        5.9799000000       -7.2270300000
   254    55     8        0.4100000000        3.1420600000        6.5749000000       -6.4685100000
   255    55     8        0.4100000000        1.9416300000        6.0567000000       -7.4229200000
   256    56     7       -0.8200000000        7.6871800000       -5.5287800000        2.2224000000
   257    56     8        0.4100000000        7.8646800000       -4.7224800000        1.6731000000
   258    56     8        0.4100000000        7.0572800000       -6.1778300000        1.7617000000
   259    57     7       -0.8200000000        6.7112800000        6.3252000000       -3.4204700000
   260    57     8        0.4100000000        5.7061800000        6.6261000000       -3.4278700000
   261    57     8        0.4100000000        6.9145800000        5.9110000000       -4.3355500000
   262    58     7       -0.8200000000        6.1353800000       -7.3314000000        1.1894000000
   263    58     8        0.4100000000        5.6246800000       -7.7262000000        2.0293000000
   264    58     8        0.4100000000        5.4162800000       -7.4472000000        0.4385000000
   265    59     7       -0.8200000000        6.9679800000       -1.2453600000        6.2258200000
   266    59     8        0.4100000000        6.9484800000       -0.2096200000        6.1743200000
   267    59     8        0.4100000000        6.4298800000       -1.6715000000        5.4536800000
   268    60     7       -0.8200000000        5.0568800000        3.4961000000        4.2133000000
   269    60     8        0.4100000000        4.5833800000        2.6703400000        4.5604000000
   270    60     8        0.4100000000        4.3757800000        4.1685000000        3.8844000000
   271    61     7       -0.8200000000        3.4043400000        2.0219400000        6.0735600000
   272    61     8        0.4100000000        2.3452300000        2.0725600000        6.0308500000
   273    61     8        0.4100000000        3.7032600000        2.7779700000        6.6566100000
   274    62     7       -0.8200000000        6.2880800000        0.4664000000       -6.8261600000
   275    62     8        0.4100000000        5.3310800000        0.2393100000       -6.8950100000
   276    62     8        0.4100000000        6.7343800000       -0.3873500000       -6.4056100000
   277    63     7       -0.8200000000        1.2121900000       -4.6441700000        4.3338000000
   278    63     8        0.4100000000        1.0370400000       -3.5727900000        4.4212000000
   279    63     8        0.4100000000        0.3318700000       -4.9373000000        3.9016000000
   280    64     7       -0.8200000000       -3.9778900000       -2.0976500000        2.3407000000
   281    64     8        0.4100000000       -4.5392600000       -2.9241200000        2.6814000000
   282    64     8        0.4100000000       -4.4703300000       -1.2498800000        2.5606000000
   283    65     7       -0.8200000000       -7.4304200000       -1.3875000000       -5.0102700000
   284    65     8        0.4100000000       -6.5561200000       -0.8099700000       -5.1972500000
   285    65     8        0.4100000000       -7.2549200000       -2.0332500000       -4.2100000000
   286    66     7       -0.8200000000       -7.5427200000       -6.9080700000       -1.6692700000