LAMMPS data file
# 9 LI molecules
# 9 TF2 molecules
# 50 wat molecules

8 atom types
5 bond types
8 angle types
6 dihedral types

294 atoms
226 bonds
275 angles
270 dihedrals

    0.0000   15.4361 xlo xhi
    0.0000   15.3940 ylo yhi
    0.0000   15.4380 zlo zhi

Masses

1    6.941  # li LI
2   16.000  # o TF2
3   19.000  # f TF2
4   12.010  # c3 TF2
5   32.060  # sy TF2
6   14.010  # ne TF2
7   16.000  # oh wat
8    1.008  # ho wat

Pair Coeffs

1 0.0182660800896 2.126  # li LI
2 0.209859347635 2.960  # o TF2
3 0.0609584251392 3.118  # f TF2
4 0.10932640151 3.400  # c3 TF2
5 0.249833029536 3.564  # sy TF2
6 0.169885665734 3.250  # ne TF2
7 0.155323242893 3.165  # oh wat
8 0.0 0.000  # ho wat

Bond Coeffs

1 492.669820742  1.466  # harmonic TF2 o sy
2 363.556158739  1.344  # harmonic TF2 c3 f
3 248.732854675  1.782  # harmonic TF2 c3 sy
4 256.928561626  1.752  # harmonic TF2 ne sy
5 529.230180349  1.012  # harmonic wat ho oh

Angle Coeffs

1 41.2525855296  108.48  # harmonic TF2 c3 sy o
2 45.2700110592  121.88  # harmonic TF2 o sy o
3 43.0716472128  107.06  # harmonic TF2 ne sy o
4 81.1647052992  109.67  # harmonic TF2 f c3 sy
5 71.2114987968  107.16  # harmonic TF2 f c3 f
6 39.3938063424  103.12  # harmonic TF2 c3 sy ne
7 109.646127418  119.18  # harmonic TF2 sy ne sy
8 37.924854457  113.24  # harmonic wat ho oh ho

Dihedral Coeffs

1 0.143896516992  3 0 0.0  # charmm TF2 f c3 sy o
2 0.143896516992  3 0 0.0  # charmm TF2 f c3 sy ne
3 0.499666059072  3 180 0.0  # charmm TF2 sy ne sy o
4 6.79544648813  1 180 0.0  # charmm TF2 sy ne sy o
5 0.499666059072  3 180 0.0  # charmm TF2 sy ne sy c3
6 6.79544648813  1 180 0.0  # charmm TF2 sy ne sy c3

Atoms

     1     1     1        0.8000000000        0.0000000000        0.0000000000        0.0000000000
     2     2     1        0.8000000000       -1.3801600000        1.2591100000        2.6071000000
     3     3     1        0.8000000000        7.6069800000       -7.2529900000       -3.5088200000
     4     4     1        0.8000000000       -5.3409200000        7.1558800000       -0.9845000000
     5     5     1        0.8000000000        3.2319800000        7.1164900000        3.8826000000
     6     6     1        0.8000000000        6.2409800000        3.1426100000        4.3485700000
     7     7     1        0.8000000000        2.7775200000        1.5521100000       -5.2545900000
     8     8     1        0.8000000000       -4.9041500000       -7.6776800000        4.5940000000
     9     9     1        0.8000000000        4.9836800000        0.2114100000        5.3069200000
    10    10     2       -0.4610000000        7.1184800000        2.8091100000        2.1375000000
    11    10     3       -0.1380000000        8.5893800000        0.4155100000       -0.4198000000
    12    10     4        0.3190000000        7.6489800000        1.0276100000        0.2853000000
    13    10     5        0.9110000000        8.2540800000        2.3037100000        1.3857000000
    14    10     2       -0.4610000000        9.1359800000        3.2403100000        0.7081000000
    15    10     3       -0.1380000000        6.7788800000        1.5703100000       -0.5289000000
    16    10     6       -0.5880000000        9.1713800000        1.4768100000        2.6046000000
    17    10     2       -0.4610000000        8.4754800000        2.4101100000        4.7120900000
    18    10     3       -0.1380000000        6.9411800000        0.0288100000        0.8983000000
    19    10     5        0.9110000000        8.4936800000        1.0535100000        4.1676000000
    20    10     2       -0.4610000000        7.3179800000        0.3183100000        3.7974000000
    21    10     3       -0.1380000000        9.8406800000       -1.2234700000        4.3060000000
    22    10     3       -0.1380000000        9.4247800000       -0.3286800000        6.2031100000
    23    10     4        0.3190000000        9.7303800000        0.0077200000        4.8939500000
    24    10     3       -0.1380000000       10.9583400000        0.5920100000        5.0101900000
    25    11     2       -0.4610000000        0.3992600000       -5.8532900000        1.1750000000
    26    11     3       -0.1380000000        3.5970500000       -5.2840300000       -0.7952000000
    27    11     4        0.3190000000        2.4671400000       -4.9389300000       -0.1376000000
    28    11     5        0.9110000000        1.6940900000       -6.3331400000        0.6795000000
    29    11     2       -0.4610000000        2.6147300000       -7.0631100000        1.5482000000
    30    11     3       -0.1380000000        2.8868100000       -4.0317700000        0.8060000000
    31    11     6       -0.5880000000        1.0248000000       -7.6537400000       -0.1791000000
    32    11     2       -0.4610000000        0.5343300000       -6.5047900000       -2.3127300000
    33    11     3       -0.1380000000        1.5312400000       -4.2677300000       -0.9372000000
    34    11     5        0.9110000000        1.3575200000       -7.6588000000       -1.9329600000
    35    11     2       -0.4610000000        2.8143300000       -7.5808400000       -2.0558400000
    36    11     3       -0.1380000000        1.3826900000       -9.5355900000       -3.8756900000
    37    11     3       -0.1380000000       -0.5148600000       -9.2893600000       -2.8938400000
    38    11     4        0.3190000000        0.8250400000       -9.2600700000       -2.7237500000
    39    11     3       -0.1380000000        1.0582700000      -10.3165900000       -1.9042500000
    40    12     2       -0.4610000000        6.8769800000        2.9211100000       -4.0971300000
    41    12     3       -0.1380000000        7.5014800000       -0.1849600000       -4.0703800000
    42    12     4        0.3190000000        6.9100800000        0.4355100000       -5.1472600000
    43    12     5        0.9110000000        6.0630800000        2.0172100000       -4.8498100000
    44    12     2       -0.4610000000        4.5959400000        1.9334100000       -4.6179400000
    45    12     3       -0.1380000000        7.8684800000        0.5452100000       -6.0269400000
    46    12     6       -0.5880000000        6.0520800000        2.6125100000       -6.4708100000
    47    12     2       -0.4610000000        5.9686800000        4.6533100000       -8.0948700000
    48    12     3       -0.1380000000        6.0982800000       -0.4389800000       -5.6057400000
    49    12     5        0.9110000000        6.6004800000        4.2562100000       -6.8329200000
    50    12     2       -0.4610000000        6.4630800000        5.0267100000       -5.6336300000
    51    12     3       -0.1380000000        8.5665800000        2.8276100000       -7.7450300000
    52    12     3       -0.1380000000        9.0185800000        3.7678100000       -5.9247400000
    53    12     4        0.3190000000        8.3639800000        3.9015100000       -7.0458700000
    54    12     3       -0.1380000000        8.9926800000        4.9374100000       -7.6677600000
    55    13     2       -0.4610000000       -6.5222200000       -5.5145800000        1.2311000000
    56    13     3       -0.1380000000       -9.4636200000       -3.1327700000        1.9548000000
    57    13     4        0.3190000000       -8.9753200000       -4.2635300000        1.4168000000
    58    13     5        0.9110000000       -7.2536200000       -4.4635100000        1.9688000000
    59    13     2       -0.4610000000       -7.0951200000       -4.3422100000        3.3997000000
    60    13     3       -0.1380000000       -9.7643200000       -5.3222100000        1.8918000000
    61    13     6       -0.5880000000       -6.5222200000       -2.9189600000        1.4945000000
    62    13     2       -0.4610000000       -4.1644200000       -1.7382300000        1.3787000000
    63    13     3       -0.1380000000       -9.2275200000       -4.2701000000        0.1017000000
    64    13     5        0.9110000000       -4.8237100000       -2.9408600000        0.9287000000
    65    13     2       -0.4610000000       -4.1792700000       -4.0388400000        1.6584000000
    66    13     3       -0.1380000000       -5.5374200000       -4.3622800000       -1.2379000000
    67    13     3       -0.1380000000       -3.7580600000       -3.2694300000       -1.5328700000
    68    13     4        0.3190000000       -4.9477300000       -3.1969200000       -0.9125000000
    69    13     3       -0.1380000000       -5.6476200000       -2.1502000000       -1.5130300000
    70    14     2       -0.4610000000       -6.3952200000       -4.5502100000        6.9499700000
    71    14     3       -0.1380000000       -6.2371200000       -1.8231500000        8.4778400000
    72    14     4        0.3190000000       -6.2028200000       -2.9501900000        9.1621400000
    73    14     5        0.9110000000       -5.7448200000       -4.4381500000        8.2406200000
    74    14     2       -0.4610000000       -5.9652200000       -5.6168500000        9.0945500000
    75    14     3       -0.1380000000       -5.3745200000       -2.7021800000       10.1339000000
    76    14     6       -0.5880000000       -4.0306300000       -4.3655000000        7.7727200000
    77    14     2       -0.4610000000       -3.4047700000       -6.7291700000        8.7390500000
    78    14     3       -0.1380000000       -7.4259200000       -3.1145700000        9.7688000000
    79    14     5        0.9110000000       -2.9021300000       -5.3650300000        8.6952200000
    80    14     2       -0.4610000000       -1.6569100000       -5.1150400000        7.9424200000
    81    14     3       -0.1380000000       -3.5055400000       -4.9578200000       11.1401100000
    82    14     3       -0.1380000000       -2.2574400000       -3.4406500000       10.4199200000
    83    14     4        0.3190000000       -2.5109400000       -4.8003400000       10.3524500000
    84    14     3       -0.1380000000       -1.5174100000       -5.5229300000       10.8769300000
    85    15     2       -0.4610000000       -3.0823900000        6.7701700000        4.3698100000
    86    15     3       -0.1380000000       -4.0213900000        4.0501100000        5.8227000000
    87    15     4        0.3190000000       -2.8093600000        4.4855100000        6.0483600000
    88    15     5        0.9110000000       -2.2158200000        5.6544400000        4.7581700000
    89    15     2       -0.4610000000       -1.3399300000        5.1420100000        3.6816000000
    90    15     3       -0.1380000000       -2.8776800000        5.0400100000        7.2430500000
    91    15     6       -0.5880000000       -1.1111300000        6.7518000000        5.4248300000
    92    15     2       -0.4610000000        0.6461200000        4.9030100000        5.7120600000
    93    15     3       -0.1380000000       -2.0186100000        3.4515100000        6.0786700000
    94    15     5        0.9110000000        0.4721900000        6.2869700000        6.0561200000
    95    15     2       -0.4610000000        1.3894100000        7.2327600000        5.4159200000
    96    15     3       -0.1380000000        1.8865000000        6.4229600000        8.0701700000
    97    15     3       -0.1380000000       -0.2198700000        5.6925100000        8.5342000000
    98    15     4        0.3190000000        0.5562800000        6.5540800000        7.8160300000
    99    15     3       -0.1380000000        0.2667500000        7.8431400000        8.1327600000
   100    16     2       -0.4610000000       -0.8862300000        1.4741100000       -1.2332700000
   101    16     3       -0.1380000000       -3.7027800000        0.2252100000       -1.3238300000
   102    16     4        0.3190000000       -3.6204700000        1.5654100000       -1.3611400000
   103    16     5        0.9110000000       -2.0213600000        2.1047100000       -1.9355300000
   104    16     2       -0.4610000000       -1.9441700000        3.5804100000       -1.9474800000
   105    16     3       -0.1380000000       -4.6506300000        1.9789100000       -2.1944800000
   106    16     6       -0.5880000000       -1.9888400000        1.4264100000       -3.5570800000
   107    16     2       -0.4610000000       -3.3892200000        3.5194100000       -4.4400100000
   108    16     3       -0.1380000000       -3.9827900000        2.0474100000       -0.1566000000
   109    16     5        0.9110000000       -2.5665700000        2.4352100000       -4.8800100000
   110    16     2       -0.4610000000       -1.3429900000        2.6909100000       -5.6273900000
   111    16     3       -0.1380000000       -4.1397400000        2.0908100000       -7.0327000000
   112    16     3       -0.1380000000       -4.7822000000        1.1610100000       -5.1549200000
   113    16     4        0.3190000000       -3.6543700000        1.4058100000       -5.8915300000
   114    16     3       -0.1380000000       -3.1542300000        0.2774100000       -6.3905500000
   115    17     2       -0.4610000000        3.9077900000       -0.9136100000        1.0713000000
   116    17     3       -0.1380000000        5.2510800000       -1.9858600000       -1.1756900000
   117    17     4        0.3190000000        4.4966000000       -0.9533700000       -1.5622000000
   118    17     5        0.9110000000        3.5747500000       -0.2480300000       -0.2125000000
   119    17     2       -0.4610000000        2.1137500000       -0.3215400000       -0.5837000000
   120    17     3       -0.1380000000        5.3633800000       -0.0936700000       -2.1444900000
   121    17     6       -0.5880000000        4.1090000000        1.2612100000        0.4266000000
   122    17     2       -0.4610000000        2.5908600000        2.4981100000       -1.2427800000
   123    17     3       -0.1380000000        3.6433600000       -1.4972600000       -2.4989500000
   124    17     5        0.9110000000        3.3619400000        2.7765100000       -0.0202000000
   125    17     2       -0.4610000000        2.7697700000        2.9401100000        1.2793000000
   126    17     3       -0.1380000000        5.3668800000        3.8097100000       -1.4853600000
   127    17     3       -0.1380000000        5.3454800000        4.3027100000        0.5482000000
   128    17     4        0.3190000000        4.5195900000        4.0857100000       -0.4824000000
   129    17     3       -0.1380000000        3.8275800000        5.2606100000       -0.7206000000
   130    18     2       -0.4610000000        3.5448700000       -4.0952800000        3.9443000000
   131    18     3       -0.1380000000        1.0495100000       -3.6287100000        6.0426300000
   132    18     4        0.3190000000        2.1542900000       -4.3922700000        6.3040000000
   133    18     5        0.9110000000        2.6872700000       -5.0028600000        4.6879200000
   134    18     2       -0.4610000000        1.6171700000       -5.6987600000        4.0043000000
   135    18     3       -0.1380000000        3.0375800000       -3.6886500000        7.0740700000
   136    18     6       -0.5880000000        3.7933000000       -6.3879700000        4.9320200000
   137    18     2       -0.4610000000        6.1159800000       -6.9228700000        4.6159700000
   138    18     3       -0.1380000000        1.7588600000       -5.4366300000        7.0218000000
   139    18     5        0.9110000000        5.4011800000       -6.1639600000        5.6312300000
   140    18     2       -0.4610000000        5.6659800000       -4.6888400000        5.7277800000
   141    18     3       -0.1380000000        4.5335600000       -6.4122300000        8.0797800000
   142    18     3       -0.1380000000        6.5854800000       -6.9979500000        7.7568000000
   143    18     4        0.3190000000        5.3325800000       -7.0185200000        7.2211300000
   144    18     3       -0.1380000000        4.9637800000       -8.2288300000        7.1088900000
   145    19     7       -0.8200000000        7.0325800000        5.0375100000        4.9898800000
   146    19     8        0.4100000000        6.7869800000        5.1161100000        5.9716600000
   147    19     8        0.4100000000        7.9524800000        5.4305400000        4.7178700000
   148    20     7       -0.8200000000        5.9950800000        6.9379600000       -3.5339300000
   149    20     8        0.4100000000        5.1191800000        6.6885400000       -3.0604700000
   150    20     8        0.4100000000        6.3263800000        6.1636600000       -4.2301500000
   151    21     7       -0.8200000000       -2.0355500000       -0.0612400000        0.9422000000
   152    21     8        0.4100000000       -2.8842200000       -0.1724900000        1.4808000000
   153    21     8        0.4100000000       -2.0142100000       -0.6326000000        0.1198000000
   154    22     7       -0.8200000000        3.1414200000       -0.4379200000        6.1405400000
   155    22     8        0.4100000000        3.4750600000       -0.8514000000        6.9827700000
   156    22     8        0.4100000000        2.1469600000       -0.1840000000        6.2345900000
   157    23     7       -0.8200000000       -7.3508200000       -7.0062200000       -1.4143100000
   158    23     8        0.4100000000       -6.9139200000       -6.1861600000       -0.9886000000
   159    23     8        0.4100000000       -8.2765200000       -7.1227600000       -0.9719000000
   160    24     7       -0.8200000000        2.6327900000        3.0935100000        6.2045800000
   161    24     8        0.4100000000        1.8280000000        3.5809100000        5.7665100000
   162    24     8        0.4100000000        2.3101600000        3.0059100000        7.1590800000
   163    25     7       -0.8200000000        7.3183800000       -2.6363600000        5.5389400000
   164    25     8        0.4100000000        6.6377800000       -3.3203100000        5.7920800000
   165    25     8        0.4100000000        7.7904800000       -3.1031300000        4.7845600000
   166    26     7       -0.8200000000       -6.2724200000        7.3547100000       -4.8301800000
   167    26     8        0.4100000000       -5.3124200000        6.9571700000       -4.6965800000
   168    26     8        0.4100000000       -6.3063200000        8.1966900000       -5.3793400000
   169    27     7       -0.8200000000        4.8100800000       -1.6130900000        4.1629000000
   170    27     8        0.4100000000        5.8115800000       -1.8273500000        4.0559000000
   171    27     8        0.4100000000        4.2926400000       -2.4795100000        4.1368000000
   172    28     7       -0.8200000000        4.3841000000        0.8856100000        3.1319000000
   173    28     8        0.4100000000        4.2395200000        0.9520100000        2.1134000000
   174    28     8        0.4100000000        4.4982000000       -0.1265700000        3.3246000000
   175    29     7       -0.8200000000        6.4649800000       -0.2729500000        6.5894500000
   176    29     8        0.4100000000        7.0017800000       -1.1249000000        6.2712100000
   177    29     8        0.4100000000        6.8419800000        0.2125100000        7.3997500000
   178    30     7       -0.8200000000        4.1440500000       -5.6745100000       -3.6900600000
   179    30     8        0.4100000000        3.2432100000       -5.3301500000       -3.8311000000
   180    30     8        0.4100000000        4.0851500000       -6.3621900000       -2.9101100000
   181    31     7       -0.8200000000       -4.1498700000        4.7610100000        2.1835000000
   182    31     8        0.4100000000       -4.9628600000        4.3591100000        1.6645000000
   183    31     8        0.4100000000       -3.5824500000        5.0799100000        1.3285000000
   184    32     7       -0.8200000000       -6.3892200000        5.3425100000       -0.9194000000
   185    32     8        0.4100000000       -6.4607200000        4.4670100000       -0.4440000000
   186    32     8        0.4100000000       -6.4761200000        5.1284100000       -1.9048700000
   187    33     7       -0.8200000000       -1.2081300000       -1.9489800000        7.3279200000
   188    33     8        0.4100000000       -1.1011700000       -2.9027500000        6.9564000000
   189    33     8        0.4100000000       -2.1702200000       -1.7628500000        7.5327700000
   190    34     7       -0.8200000000        0.7684500000       -4.3884700000       -5.7582500000
   191    34     8        0.4100000000        0.1969500000       -4.8205200000       -5.0038000000
   192    34     8        0.4100000000        0.3423200000       -4.8773300000       -6.4852500000
   193    35     7       -0.8200000000        5.8102800000       -7.3997700000        0.2592000000
   194    35     8        0.4100000000        4.9543800000       -7.1932200000       -0.3036000000
   195    35     8        0.4100000000        5.6178800000       -7.2437300000        1.2177000000
   196    36     7       -0.8200000000       -2.5820900000        5.4933800000       -0.1007000000
   197    36     8        0.4100000000       -2.0528000000        4.9726100000       -0.8443000000
   198    36     8        0.4100000000       -2.3632200000        6.5045800000       -0.0600000000
   199    37     7       -0.8200000000        4.2828800000        3.7417100000        3.5403000000
   200    37     8        0.4100000000        3.4512100000        4.2626100000        3.0789000000
   201    37     8        0.4100000000        4.2982400000        2.7532100000        3.1401000000
   202    38     7       -0.8200000000        0.2984300000        0.4465100000        6.3773000000
   203    38     8        0.4100000000       -0.2512700000       -0.2024800000        6.9407200000
   204    38     8        0.4100000000        0.1458000000        0.4383100000        5.3901600000
   205    39     7       -0.8200000000       -0.2802800000       -0.8863600000       -3.4845700000
   206    39     8        0.4100000000       -0.8698000000       -0.0632200000       -3.6379500000
   207    39     8        0.4100000000       -0.0268800000       -1.2747700000       -4.3975600000
   208    40     7       -0.8200000000       -2.8375200000       -4.1861000000        5.2703800000
   209    40     8        0.4100000000       -2.9050300000       -4.2040900000        6.3334400000
   210    40     8        0.4100000000       -2.0321400000       -4.7887800000        5.0828100000
   211    41     7       -0.8200000000       -7.5230200000        6.4599600000        1.3624000000
   212    41     8        0.4100000000       -7.1352200000        6.0037800000        0.5611000000
   213    41     8        0.4100000000       -8.3073200000        7.0718700000        1.1560000000
   214    42     7       -0.8200000000        3.6565900000        5.5464300000        5.4450200000
   215    42     8        0.4100000000        3.7330300000        4.8180100000        4.7204700000
   216    42     8        0.4100000000        4.0063700000        5.3215100000        6.3861100000
   217    43     7       -0.8200000000       -5.9951200000        6.2642200000        3.7449000000
   218    43     8        0.4100000000       -5.3455200000        5.5209700000        3.4694000000
   219    43     8        0.4100000000       -6.5287200000        6.4568700000        2.8738000000
   220    44     7       -0.8200000000        1.2937000000        1.9237100000       -6.9101600000
   221    44     8        0.4100000000        0.4299000000        2.2954100000       -6.4537400000
   222    44     8        0.4100000000        0.9329300000        1.2471100000       -7.5359200000
   223    45     7       -0.8200000000       -4.8944200000       -5.6495600000        4.0690000000
   224    45     8        0.4100000000       -4.1630700000       -4.9766300000        4.3706600000
   225    45     8        0.4100000000       -5.7510200000       -5.1021100000        3.8579000000
   226    46     7       -0.8200000000        0.3101500000       -1.6685900000       -5.9758700000
   227    46     8        0.4100000000        0.6310800000       -2.6343800000       -5.9968300000
   228    46     8        0.4100000000       -0.4500600000       -1.5450700000       -6.5762500000
   229    47     7       -0.8200000000        1.4076000000        2.8176100000       -3.9976700000
   230    47     8        0.4100000000        0.3814300000        2.5973100000       -4.1814700000
   231    47     8        0.4100000000        1.6093700000        2.6658100000       -3.0199500000
   232    48     7       -0.8200000000       -1.3179400000       -4.0154300000       -0.0658000000
   233    48     8        0.4100000000       -2.0944200000       -4.6210900000       -0.3094000000
   234    48     8        0.4100000000       -0.6294400000       -4.3129000000        0.6439000000
   235    49     7       -0.8200000000       -0.0863600000        4.1986100000        1.6331000000
   236    49     8        0.4100000000       -0.6378000000        4.7851100000        2.2589000000
   237    49     8        0.4100000000       -0.6000900000        4.3668100000        0.7679000000
   238    50     7       -0.8200000000       -3.3555300000        2.1611100000        2.6838000000
   239    50     8        0.4100000000       -3.4275700000        3.1678100000        2.3797000000
   240    50     8        0.4100000000       -4.2568000000        1.8508100000        3.0341000000
   241    51     7       -0.8200000000       -0.6890200000       -0.3297300000        3.8329000000
   242    51     8        0.4100000000       -1.4529200000       -0.9960700000        3.8383000000
   243    51     8        0.4100000000        0.2318700000       -0.7177400000        3.6572000000
   244    52     7       -0.8200000000        5.0247800000        6.5574400000        2.8925000000
   245    52     8        0.4100000000        5.6538800000        7.1219800000        3.3899000000
   246    52     8        0.4100000000        5.4303800000        5.6786600000        2.8130000000
   247    53     7       -0.8200000000       -2.6381300000       -6.2008500000        2.1225000000
   248    53     8        0.4100000000       -1.9388700000       -6.3190600000        2.8343000000
   249    53     8        0.4100000000       -3.2082200000       -5.3507600000        2.4026000000
   250    54     7       -0.8200000000       -1.0200000000       -5.9973900000        4.3433400000
   251    54     8        0.4100000000       -1.1094400000       -6.8848200000        4.8510200000
   252    54     8        0.4100000000       -0.0248500000       -5.8483900000        4.1146000000
   253    55     7       -0.8200000000        0.7774500000        1.1478100000        1.8166000000
   254    55     8        0.4100000000        1.3638500000        1.9530100000        1.6620000000
   255    55     8        0.4100000000        1.2705300000        0.6382100000        2.5480000000
   256    56     7       -0.8200000000       -3.8459300000       -7.4241100000       -2.2236800000
   257    56     8        0.4100000000       -3.6359500000       -8.0591200000       -3.0312100000
   258    56     8        0.4100000000       -2.9916100000       -7.1230900000       -1.7426800000
   259    57     7       -0.8200000000        2.1723400000        5.5343100000        2.8116000000
   260    57     8        0.4100000000        1.3673700000        5.3874100000        3.4003000000
   261    57     8        0.4100000000        1.9407600000        5.2781100000        1.8467000000
   262    58     7       -0.8200000000        6.8780800000       -5.4389900000       -3.7776000000
   263    58     8        0.4100000000        5.8837800000       -5.3484800000       -3.9704100000
   264    58     8        0.4100000000        7.2922800000       -4.5579500000       -3.6109500000
   265    59     7       -0.8200000000       -4.9869000000        7.5003600000        6.6872800000
   266    59     8        0.4100000000       -5.7061200000        7.7886200000        7.3864500000
   267    59     8        0.4100000000       -4.0991600000        7.5473400000        7.2184900000
   268    60     7       -0.8200000000        5.1835800000        2.2901100000        5.9417000000
   269    60     8        0.4100000000        5.5540800000        2.5977100000        6.8429800000
   270    60     8        0.4100000000        4.1842200000        2.5113100000        5.9118700000
   271    61     7       -0.8200000000       -6.4686200000        4.8847100000       -3.4072400000
   272    61     8        0.4100000000       -7.1884200000        4.1795100000       -3.5328200000
   273    61     8        0.4100000000       -6.4158200000        5.5680900000       -4.1930500000
   274    62     7       -0.8200000000       -3.6714000000        6.3665700000       -4.6564400000
   275    62     8        0.4100000000       -3.3607000000        6.4840200000       -5.6377300000
   276    62     8        0.4100000000       -3.5402700000        5.3381100000       -4.3124800000
   277    63     7       -0.8200000000       -2.6196500000       -2.0278000000        3.5994000000
   278    63     8        0.4100000000       -2.7896400000       -2.8870500000        4.1107000000
   279    63     8        0.4100000000       -3.2499200000       -2.1439900000        2.7493000000
   280    64     7       -0.8200000000       -0.7450700000       -1.6304500000       -1.0234000000
   281    64     8        0.4100000000       -0.9111800000       -2.6109100000       -0.7859000000
   282    64     8        0.4100000000       -0.6551600000       -1.4844900000       -2.0089000000
   283    65     7       -0.8200000000       -4.8594600000       -7.5563500000        0.9598000000
   284    65     8        0.4100000000       -3.9940600000       -7.4495800000        1.4987000000
   285    65     8        0.4100000000       -5.4843200000       -6.7502000000        1.3212000000
   286    66     7       -0.8200000000        1.9833000000       -0.9599200000        3.4264000000