LAMMPS data file
# 9 LI molecules
# 9 TF2 molecules
# 50 wat molecules

8 atom types
5 bond types
8 angle types
6 dihedral types

294 atoms
226 bonds
275 angles
270 dihedrals

    0.0000   15.4361 xlo xhi
    0.0000   15.3940 ylo yhi
    0.0000   15.4380 zlo zhi

Masses

1    6.941  # li LI
2   16.000  # o TF2
3   19.000  # f TF2
4   12.010  # c3 TF2
5   32.060  # sy TF2
6   14.010  # ne TF2
7   16.000  # oh wat
8    1.008  # ho wat

Pair Coeffs

1 0.0182660800896 2.126  # li LI
2 0.209859347635 2.960  # o TF2
3 0.0609584251392 3.118  # f TF2
4 0.10932640151 3.400  # c3 TF2
5 0.249833029536 3.564  # sy TF2
6 0.169885665734 3.250  # ne TF2
7 0.155323242893 3.165  # oh wat
8 0.0 0.000  # ho wat

Bond Coeffs

1 492.669820742  1.466  # harmonic TF2 o sy
2 363.556158739  1.344  # harmonic TF2 c3 f
3 248.732854675  1.782  # harmonic TF2 c3 sy
4 256.928561626  1.752  # harmonic TF2 ne sy
5 529.230180349  1.012  # harmonic wat ho oh

Angle Coeffs

1 41.2525855296  108.48  # harmonic TF2 c3 sy o
2 45.2700110592  121.88  # harmonic TF2 o sy o
3 43.0716472128  107.06  # harmonic TF2 ne sy o
4 81.1647052992  109.67  # harmonic TF2 f c3 sy
5 71.2114987968  107.16  # harmonic TF2 f c3 f
6 39.3938063424  103.12  # harmonic TF2 c3 sy ne
7 109.646127418  119.18  # harmonic TF2 sy ne sy
8 37.924854457  113.24  # harmonic wat ho oh ho

Dihedral Coeffs

1 0.143896516992  3 0 0.0  # charmm TF2 f c3 sy o
2 0.143896516992  3 0 0.0  # charmm TF2 f c3 sy ne
3 0.499666059072  3 180 0.0  # charmm TF2 sy ne sy o
4 6.79544648813  1 180 0.0  # charmm TF2 sy ne sy o
5 0.499666059072  3 180 0.0  # charmm TF2 sy ne sy c3
6 6.79544648813  1 180 0.0  # charmm TF2 sy ne sy c3

Atoms

     1     1     1        0.8000000000        0.0000000000        0.0000000000        0.0000000000
     2     2     1        0.8000000000        0.6655000000       -5.1906000000        2.4376000000
     3     3     1        0.8000000000        0.5980000000        6.8502900000        2.0960000000
     4     4     1        0.8000000000        2.9183000000       -3.8861000000       -5.2778400000
     5     5     1        0.8000000000        5.9440600000       -4.5419000000        6.2205600000
     6     6     1        0.8000000000        2.4217000000       -6.8860200000       -1.1644100000
     7     7     1        0.8000000000        7.2961500000        6.5853900000        6.8300600000
     8     8     1        0.8000000000       -4.6601500000        0.5023600000       -2.1359400000
     9     9     1        0.8000000000       -1.0760000000        4.7234600000        7.2706500000
    10    10     2       -0.4610000000        5.1577900000       -5.9881000000        1.1612000000
    11    10     3       -0.1380000000        8.6755800000       -4.8911000000       -0.0096000000
    12    10     4        0.3190000000        7.7537700000       -5.6757000000        0.6130000000
    13    10     5        0.9110000000        6.0647700000       -4.9673000000        0.5427000000
    14    10     2       -0.4610000000        5.8406600000       -4.5367000000       -0.8525500000
    15    10     3       -0.1380000000        7.8187200000       -6.8715400000       -0.0162000000
    16    10     6       -0.5880000000        5.7132400000       -3.5286000000        1.5284000000
    17    10     2       -0.4610000000        7.5020200000       -2.4587000000        0.2901000000
    18    10     3       -0.1380000000        8.1786700000       -5.9224000000        1.8179000000
    19    10     5        0.9110000000        6.7879900000       -2.2958000000        1.5682000000
    20    10     2       -0.4610000000        5.9770400000       -1.0771000000        1.7762000000
    21    10     3       -0.1380000000        8.8545100000       -3.4527000000        2.8755000000
    22    10     3       -0.1380000000        7.5366000000       -2.1789000000        4.0551000000
    23    10     4        0.3190000000        8.0501600000       -2.3623000000        2.8513000000
    24    10     3       -0.1380000000        8.9218100000       -1.3402000000        2.7142000000
    25    11     2       -0.4610000000       -0.1559000000        3.1259200000       -4.0157700000
    26    11     3       -0.1380000000       -1.7515000000        0.6991000000       -4.4673000000
    27    11     4        0.3190000000       -1.3356000000        1.2185700000       -5.6239000000
    28    11     5        0.9110000000       -0.0624000000        2.4617200000       -5.3125300000
    29    11     2       -0.4610000000       -0.0001000000        3.4112200000       -6.4425900000
    30    11     3       -0.1380000000       -0.8173000000        0.2947700000       -6.4058600000
    31    11     6       -0.5880000000        1.6009000000        1.8538400000       -5.4255200000
    32    11     2       -0.4610000000        2.9130000000        0.4233000000       -6.7221500000
    33    11     3       -0.1380000000       -2.3763800000        1.7248500000       -6.2163200000
    34    11     5        0.9110000000        2.2092000000        1.6687200000       -6.9739900000
    35    11     2       -0.4610000000        1.1529000000        1.7648800000       -7.9956100000
    36    11     3       -0.1380000000        2.7548000000        4.1537300000       -7.6869600000
    37    11     3       -0.1380000000        4.3375200000        2.8568900000       -8.1660700000
    38    11     4        0.3190000000        3.4008000000        3.0578200000       -7.2292300000
    39    11     3       -0.1380000000        4.0228700000        3.4334200000       -6.0682900000
    40    12     2       -0.4610000000       -2.9390100000        4.6910300000       -7.0283900000
    41    12     3       -0.1380000000       -5.1772000000        4.2807800000       -9.2084500000
    42    12     4        0.3190000000       -5.1598300000        3.6346300000       -8.0287400000
    43    12     5        0.9110000000       -4.2940900000        4.3579600000       -6.6226100000
    44    12     2       -0.4610000000       -4.4090100000        3.7276600000       -5.2628600000
    45    12     3       -0.1380000000       -6.4830400000        3.3653900000       -7.7963100000
    46    12     6       -0.5880000000       -5.3174000000        5.7396200000       -6.4777300000
    47    12     2       -0.4610000000       -4.6092300000        7.9213800000       -7.4831700000
    48    12     3       -0.1380000000       -4.5540400000        2.4504300000       -8.3167300000
    49    12     5        0.9110000000       -4.5506600000        7.3474500000       -6.1426200000
    50    12     2       -0.4610000000       -5.5032300000        7.9549000000       -5.1112900000
    51    12     3       -0.1380000000       -2.5892900000        8.7097500000       -5.1987100000
    52    12     3       -0.1380000000       -1.9402000000        7.2086600000       -6.5120300000
    53    12     4        0.3190000000       -2.8438100000        7.4875600000       -5.5669800000
    54    12     3       -0.1380000000       -2.4136300000        6.7016000000       -4.5101600000
    55    13     2       -0.4610000000       -6.5477900000       -3.6640000000       -5.2646100000
    56    13     3       -0.1380000000       -3.8485100000       -1.9080000000       -4.6108900000
    57    13     4        0.3190000000       -3.8806100000       -2.8033000000       -5.5838600000
    58    13     5        0.9110000000       -5.5629700000       -3.0684000000       -6.1975100000
    59    13     2       -0.4610000000       -5.5425700000       -3.6075000000       -7.5170500000
    60    13     3       -0.1380000000       -3.0636300000       -2.4901000000       -6.6584900000
    61    13     6       -0.5880000000       -6.2541800000       -1.5069000000       -6.2145200000
    62    13     2       -0.4610000000       -7.7131100000       -1.6054000000       -8.2764100000
    63    13     3       -0.1380000000       -3.3989900000       -3.9442000000       -5.0957400000
    64    13     5        0.9110000000       -6.6661700000       -0.7082600000       -7.7792300000
    65    13     2       -0.4610000000       -7.0875700000        0.6224500000       -7.3262600000
    66    13     3       -0.1380000000       -4.1866000000       -0.2993700000       -8.3457800000
    67    13     3       -0.1380000000       -5.6003800000        0.2727300000       -9.8045200000
    68    13     4        0.3190000000       -5.2900800000       -0.6523100000       -8.9281400000
    69    13     3       -0.1380000000       -5.0426900000       -1.7227000000       -9.6244900000
    70    14     2       -0.4610000000       -0.6970000000       -3.4612000000        2.3191000000
    71    14     3       -0.1380000000       -3.5876500000       -2.5371000000        3.1738000000
    72    14     4        0.3190000000       -3.3102700000       -2.8007000000        1.8366000000
    73    14     5        0.9110000000       -1.5082000000       -2.7415000000        1.3495000000
    74    14     2       -0.4610000000       -1.1293000000       -1.3826000000        0.9177000000
    75    14     3       -0.1380000000       -3.8265400000       -4.0427000000        1.7131000000
    76    14     6       -0.5880000000       -1.2415000000       -3.8807000000       -0.0213000000
    77    14     2       -0.4610000000       -3.4080300000       -2.9307000000       -1.1248500000
    78    14     3       -0.1380000000       -4.1441300000       -1.9049000000        1.2094000000
    79    14     5        0.9110000000       -2.3831600000       -3.9556000000       -1.3199600000
    80    14     2       -0.4610000000       -1.3337000000       -3.8440000000       -2.3916300000
    81    14     3       -0.1380000000       -3.6404500000       -6.0642000000       -0.2784000000
    82    14     3       -0.1380000000       -2.3641500000       -6.4917000000       -1.9207700000
    83    14     4        0.3190000000       -3.1865400000       -5.6037000000       -1.4318900000
    84    14     3       -0.1380000000       -4.2377000000       -5.6093000000       -2.2249400000
    85    15     2       -0.4610000000        1.1379000000       -4.0744000000        4.2329000000
    86    15     3       -0.1380000000        0.2903000000       -0.9090000000        6.4418700000
    87    15     4        0.3190000000        0.2394000000       -1.7110000000        5.3285100000
    88    15     5        0.9110000000        1.0698000000       -3.3110000000        5.4920900000
    89    15     2       -0.4610000000        0.8335000000       -4.1182000000        6.6814400000
    90    15     3       -0.1380000000       -1.0892000000       -1.7511000000        4.9653000000
    91    15     6       -0.5880000000        2.7255000000       -3.2409000000        5.8742600000
    92    15     2       -0.4610000000        4.7654700000       -3.5095000000        4.6391000000
    93    15     3       -0.1380000000        0.8646000000       -0.9920000000        4.3865000000
    94    15     5        0.9110000000        3.6965400000       -2.5159000000        4.6393000000
    95    15     2       -0.4610000000        3.0329000000       -2.2581000000        3.3797000000
    96    15     3       -0.1380000000        4.9996000000       -0.9862500000        6.2804000000
    97    15     3       -0.1380000000        3.2596000000       -0.0327400000        5.3557100000
    98    15     4        0.3190000000        4.2409800000       -0.8839000000        5.1313700000
    99    15     3       -0.1380000000        5.0010500000       -0.3051300000        4.2380000000
   100    16     2       -0.4610000000       -1.6663000000        1.3908700000        0.8341000000
   101    16     3       -0.1380000000       -3.7368800000        0.8627700000        2.9804000000
   102    16     4        0.3190000000       -2.8936600000        1.8804000000        3.1309000000
   103    16     5        0.9110000000       -2.2433500000        2.4873800000        1.5405000000
   104    16     2       -0.4610000000       -1.4175000000        3.6613900000        1.7253000000
   105    16     3       -0.1380000000       -3.6706400000        2.7718400000        3.7043000000
   106    16     6       -0.5880000000       -3.4899600000        2.9970000000        0.5572000000
   107    16     2       -0.4610000000       -1.7280000000        3.4081500000       -1.2945000000
   108    16     3       -0.1380000000       -1.9115000000        1.5592900000        3.9760000000
   109    16     5        0.9110000000       -3.1249000000        3.5284400000       -1.0038000000
   110    16     2       -0.4610000000       -4.0370800000        2.6570500000       -1.7428300000
   111    16     3       -0.1380000000       -3.6614400000        5.7754200000       -2.1742900000
   112    16     3       -0.1380000000       -2.8696100000        5.9992400000       -0.1083000000
   113    16     4        0.3190000000       -3.6062600000        5.2559300000       -0.9315200000
   114    16     3       -0.1380000000       -4.7735100000        5.3171500000       -0.3628000000
   115    17     2       -0.4610000000       -0.7049000000       -6.4093000000        5.7451500000
   116    17     3       -0.1380000000       -2.6928000000       -3.7215000000        6.1863500000
   117    17     4        0.3190000000       -3.0954500000       -5.0109000000        6.2160700000
   118    17     5        0.9110000000       -2.0560300000       -6.1257000000        5.2142800000
   119    17     2       -0.4610000000       -2.2415300000       -5.8516000000        3.7620000000
   120    17     3       -0.1380000000       -3.0883700000       -5.3592000000        7.5234300000
   121    17     6       -0.5880000000       -2.6035900000       -7.7136100000        5.5813900000
   122    17     2       -0.4610000000       -1.2646000000       -8.5309700000        3.5448000000
   123    17     3       -0.1380000000       -4.3907700000       -5.1451000000        5.8659500000
   124    17     5        0.9110000000       -2.4177300000       -8.9158500000        4.3180000000
   125    17     2       -0.4610000000       -2.2451200000      -10.0818000000        5.3074900000
   126    17     3       -0.1380000000       -4.1302700000       -7.7686100000        2.6082000000
   127    17     3       -0.1380000000       -5.1312800000       -8.9188400000        4.1789000000
   128    17     4        0.3190000000       -4.0067400000       -8.8620500000        3.3767000000
   129    17     3       -0.1380000000       -4.1076500000       -9.9294100000        2.4771000000
   130    18     2       -0.4610000000        5.5298300000        5.8710300000        2.5894000000
   131    18     3       -0.1380000000        7.9844300000        4.1512300000        3.8026000000
   132    18     4        0.3190000000        6.6624100000        3.7981000000        3.7299000000
   133    18     5        0.9110000000        5.5286800000        5.1916700000        3.8426000000
   134    18     2       -0.4610000000        5.9990200000        6.0751600000        5.0036200000
   135    18     3       -0.1380000000        6.4772600000        3.1944100000        2.5801000000
   136    18     6       -0.5880000000        3.9562500000        4.7042800000        4.2425000000
   137    18     2       -0.4610000000        1.7263000000        5.3223800000        3.3243000000
   138    18     3       -0.1380000000        6.4373400000        2.8264700000        4.7364000000
   139    18     5        0.9110000000        2.7581000000        4.2568900000        2.9893000000
   140    18     2       -0.4610000000        3.4764800000        4.2927900000        1.7436000000
   141    18     3       -0.1380000000        3.1603000000        1.6078600000        3.1919000000
   142    18     3       -0.1380000000        1.1501000000        2.2561100000        2.5186000000
   143    18     4        0.3190000000        2.1663000000        2.5596300000        3.3479000000
   144    18     3       -0.1380000000        1.8315000000        2.4043600000        4.6214000000
   145    19     7       -0.8200000000        6.7005700000        4.8522600000       -7.6913400000
   146    19     8        0.4100000000        6.5536500000        4.8020000000       -6.7026000000
   147    19     8        0.4100000000        6.9305800000        3.8918800000       -7.8947300000
   148    20     7       -0.8200000000        0.2765000000        1.5812100000       -1.4191100000
   149    20     8        0.4100000000        1.1890000000        1.9595700000       -1.4493800000
   150    20     8        0.4100000000       -0.5090000000        2.2042400000       -1.4269300000
   151    21     7       -0.8200000000        6.9438800000       -6.0043000000       -4.6378700000
   152    21     8        0.4100000000        7.1557200000       -6.9302800000       -4.2009400000
   153    21     8        0.4100000000        7.7186000000       -5.3287000000       -4.6985300000
   154    22     7       -0.8200000000        6.2210000000        1.0479500000       -2.6665400000
   155    22     8        0.4100000000        6.4426200000        1.4559000000       -3.6486700000
   156    22     8        0.4100000000        6.5551100000        0.0523900000       -2.7134000000
   157    23     7       -0.8200000000        5.6611400000       -3.2056000000       -7.5595700000
   158    23     8        0.4100000000        6.4245900000       -2.6257000000       -7.7923200000
   159    23     8        0.4100000000        5.1496800000       -2.6898000000       -6.9020800000
   160    24     7       -0.8200000000        4.4736900000       -4.8666000000       -4.3421700000
   161    24     8        0.4100000000        5.3855200000       -5.3495000000       -4.3923800000
   162    24     8        0.4100000000        4.0994100000       -5.0936000000       -3.4137000000
   163    25     7       -0.8200000000        3.8193800000       -1.2253000000       -0.1844000000
   164    25     8        0.4100000000        4.3880400000       -1.2623000000        0.6637000000
   165    25     8        0.4100000000        4.1962200000       -1.8735000000       -0.9047300000
   166    26     7       -0.8200000000        0.8345000000        4.6458600000       -1.9235200000
   167    26     8        0.4100000000        0.1185000000        4.1064600000       -2.4125000000
   168    26     8        0.4100000000        1.7619000000        4.3658800000       -2.3024900000
   169    27     7       -0.8200000000        3.2701000000       -6.5377900000        5.2388000000
   170    27     8        0.4100000000        4.2649000000       -6.6104200000        4.9926400000
   171    27     8        0.4100000000        3.2883000000       -5.7835000000        5.9262800000
   172    28     7       -0.8200000000       -5.1952500000        1.1411300000       -4.0857900000
   173    28     8        0.4100000000       -4.6317100000        1.9032900000       -4.5771400000
   174    28     8        0.4100000000       -6.0083400000        0.7735500000       -4.5959500000
   175    29     7       -0.8200000000        5.8995000000        6.9727000000       -1.9042500000
   176    29     8        0.4100000000        6.0316700000        6.0539000000       -1.4507900000
   177    29     8        0.4100000000        6.7547300000        7.2021200000       -2.4827400000
   178    30     7       -0.8200000000        2.2370000000       -0.4052400000       -3.7958400000
   179    30     8        0.4100000000        2.1135000000        0.1692900000       -4.6072700000
   180    30     8        0.4100000000        2.7069000000        0.2928400000       -3.1777200000
   181    31     7       -0.8200000000       -7.3568700000       -4.4541000000        5.7469600000
   182    31     8        0.4100000000       -6.8022700000       -4.0217000000        4.9482000000
   183    31     8        0.4100000000       -6.7806500000       -4.5306000000        6.6055300000
   184    32     7       -0.8200000000        5.7252200000        4.5883400000       -0.5504900000
   185    32     8        0.4100000000        5.1578800000        4.4102100000        0.2308000000
   186    32     8        0.4100000000        6.6326000000        3.9934800000       -0.5602300000
   187    33     7       -0.8200000000        3.6211900000        3.7831500000       -2.4534100000
   188    33     8        0.4100000000        3.4647400000        2.8783100000       -2.0194600000
   189    33     8        0.4100000000        4.1767000000        4.3409500000       -1.8012500000
   190    34     7       -0.8200000000        3.5241100000        7.4305300000        0.1472000000
   191    34     8        0.4100000000        4.3276900000        7.9442200000        0.4268000000
   192    34     8        0.4100000000        3.5243500000        6.4665700000        0.4056000000
   193    35     7       -0.8200000000        3.6973800000       -7.3483300000       -2.8122300000
   194    35     8        0.4100000000        4.5432700000       -7.6967200000       -2.3059300000
   195    35     8        0.4100000000        3.6045700000       -7.9871700000       -3.6488300000
   196    36     7       -0.8200000000        2.9712000000        6.3827700000        6.4425100000
   197    36     8        0.4100000000        3.0238000000        7.0643300000        5.6971500000
   198    36     8        0.4100000000        3.3247000000        5.5111600000        6.0570600000
   199    37     7       -0.8200000000        4.4786900000       -5.6002000000        7.6002100000
   200    37     8        0.4100000000        4.5151200000       -4.7122000000        8.1816100000
   201    37     8        0.4100000000        3.7756800000       -6.2573000000        7.8431900000
   202    38     7       -0.8200000000        1.6993000000       -4.8546000000       -1.1350100000
   203    38     8        0.4100000000        1.6073000000       -4.6566000000       -0.1637000000
   204    38     8        0.4100000000        2.0113000000       -4.0885000000       -1.6974500000
   205    39     7       -0.8200000000        3.0169000000       -2.2298000000       -6.8407700000
   206    39     8        0.4100000000        2.4283000000       -2.5025000000       -7.6324200000
   207    39     8        0.4100000000        2.9766000000       -1.2186000000       -6.7879000000
   208    40     7       -0.8200000000       -0.1693000000       -6.7955500000        0.9260000000
   209    40     8        0.4100000000       -1.1008000000       -6.4780000000        0.9813000000
   210    40     8        0.4100000000        0.0866000000       -7.0972800000       -0.0541000000
   211    41     7       -0.8200000000        1.0797000000       -6.9850400000        3.6207000000
   212    41     8        0.4100000000        1.9678000000       -6.9544800000        4.1230000000
   213    41     8        0.4100000000        0.4935000000       -6.5771100000        4.3649000000
   214    42     7       -0.8200000000        0.2053000000        6.4379700000        7.1282500000
   215    42     8        0.4100000000       -0.1202000000        7.2388600000        6.5196900000
   216    42     8        0.4100000000        1.1608000000        6.3045800000        6.8805000000
   217    43     7       -0.8200000000        0.5147000000        7.6289500000       -1.7109800000
   218    43     8        0.4100000000        0.7051000000        6.6290600000       -2.0310200000
   219    43     8        0.4100000000        0.3135000000        8.3490800000       -2.4216500000
   220    44     7       -0.8200000000        3.5327900000        1.0598800000       -1.7808900000
   221    44     8        0.4100000000        3.4988200000        0.2231800000       -1.2486000000
   222    44     8        0.4100000000        4.4206100000        1.2107800000       -2.2420700000
   223    45     7       -0.8200000000        1.5934000000       -5.2190000000       -6.3381400000
   224    45     8        0.4100000000        1.8969000000       -6.1612000000       -6.6818400000
   225    45     8        0.4100000000        0.9864000000       -4.9169000000       -7.1260600000
   226    46     7       -0.8200000000        6.0804300000        5.2902000000       -4.9036000000
   227    46     8        0.4100000000        6.7714100000        5.8897600000       -4.4455600000
   228    46     8        0.4100000000        5.1085500000        5.6122000000       -5.0064200000
   229    47     7       -0.8200000000        7.0674600000        2.0511000000       -4.9140500000
   230    47     8        0.4100000000        7.6139400000        1.9566400000       -5.8040400000
   231    47     8        0.4100000000        6.7995700000        3.0289000000       -4.8116000000
   232    48     7       -0.8200000000        5.4380600000       -2.3422000000       -2.4105600000
   233    48     8        0.4100000000        6.2588500000       -2.1822000000       -2.9702400000
   234    48     8        0.4100000000        5.7459600000       -3.2140000000       -1.9322100000
   235    49     7       -0.8200000000       -5.6455500000       -1.0925000000       -1.4905200000
   236    49     8        0.4100000000       -6.2457600000       -1.4097000000       -0.7223300000
   237    49     8        0.4100000000       -4.7827800000       -1.6124000000       -1.4404800000
   238    50     7       -0.8200000000        2.9712000000       -2.7833000000       -3.2141000000
   239    50     8        0.4100000000        2.5697000000       -1.8358000000       -3.4097100000
   240    50     8        0.4100000000        3.9167200000       -2.6828000000       -2.9003300000
   241    51     7       -0.8200000000        0.8558000000        6.8769800000       -4.7407300000
   242    51     8        0.4100000000        0.7211000000        7.7840800000       -4.3016200000
   243    51     8        0.4100000000        0.0298000000        6.6844500000       -5.2841700000
   244    52     7       -0.8200000000       -7.5424800000        7.0123700000       -3.7096400000
   245    52     8        0.4100000000       -7.0661900000        6.1776500000       -3.3335400000
   246    52     8        0.4100000000       -6.8938300000        7.3386900000       -4.4500500000
   247    53     7       -0.8200000000       -6.7129500000       -7.5849300000        6.1393700000
   248    53     8        0.4100000000       -6.1082200000       -7.7414800000        5.3213400000
   249    53     8        0.4100000000       -6.0725700000       -7.3848300000        6.9519600000
   250    54     7       -0.8200000000        6.1787200000       -6.5467500000        5.1681000000
   251    54     8        0.4100000000        7.1252500000       -6.3306000000        5.4270100000
   252    54     8        0.4100000000        6.1489100000       -7.5779300000        5.1798600000
   253    55     7       -0.8200000000       -6.2657600000        4.6405500000       -3.1230500000
   254    55     8        0.4100000000       -6.8282200000        4.1918400000       -2.4265400000
   255    55     8        0.4100000000       -5.6389300000        4.0984100000       -3.6884800000
   256    56     7       -0.8200000000        0.9184000000        5.4397000000        0.6877000000
   257    56     8        0.4100000000        1.0519000000        5.3801800000       -0.3061000000
   258    56     8        0.4100000000        0.4982000000        4.4858700000        0.8695000000
   259    57     7       -0.8200000000        3.3986000000        5.8932100000       -4.4325100000
   260    57     8        0.4100000000        3.5592000000        4.9856800000       -3.8840500000
   261    57     8        0.4100000000        2.3895000000        5.9946400000       -4.5432100000
   262    58     7       -0.8200000000        7.6959700000        2.9187500000       -1.2943200000
   263    58     8        0.4100000000        7.1438200000        2.2820300000       -1.8241600000
   264    58     8        0.4100000000        8.2970300000        2.2742400000       -0.7455500000
   265    59     7       -0.8200000000        2.4117000000       -4.2875000000        1.5858000000
   266    59     8        0.4100000000        3.4246000000       -4.6011000000        1.4439000000
   267    59     8        0.4100000000        2.3871000000       -3.3494000000        2.0552000000
   268    60     7       -0.8200000000        0.4375000000       -5.8253000000       -3.9546100000
   269    60     8        0.4100000000        0.6493000000       -5.4496000000       -4.8723100000
   270    60     8        0.4100000000       -0.1222000000       -5.1409000000       -3.3989200000
   271    61     7       -0.8200000000       -1.2723000000        2.8334600000        6.3095700000
   272    61     8        0.4100000000       -0.4296000000        2.2287800000        6.3848400000
   273    61     8        0.4100000000       -2.0402300000        2.2565100000        5.8977300000
   274    62     7       -0.8200000000       -6.0720100000        1.4003700000        0.2034000000
   275    62     8        0.4100000000       -5.1689200000        1.9584900000        0.1027000000
   276    62     8        0.4100000000       -6.1083900000        0.7827900000        0.9509000000
   277    63     7       -0.8200000000        7.7038900000       -1.4629000000       -3.5266300000
   278    63     8        0.4100000000        8.4292500000       -1.6440000000       -2.7824800000
   279    63     8        0.4100000000        8.0684700000       -1.7890000000       -4.4373400000
   280    64     7       -0.8200000000        2.8016000000       -7.5350500000       -6.8024600000
   281    64     8        0.4100000000        2.8568000000       -8.2580200000       -7.5212100000
   282    64     8        0.4100000000        2.4613000000       -7.9269500000       -5.9263400000
   283    65     7       -0.8200000000       -2.6461600000        0.2312000000       -1.4377600000
   284    65     8        0.4100000000       -1.8698000000       -0.2650200000       -1.8845500000
   285    65     8        0.4100000000       -2.3348700000        0.9628600000       -0.8100200000
   286    66     7       -0.8200000000       -0.0508000000       -1.3242000000       -1.9120200000