LAMMPS data file via write_data, version 3 Mar 2020, timestep = 10000000

341 atoms
8 atom types
274 bonds
5 bond types
389 angles
8 angle types
420 dihedrals
6 dihedral types

0.0000000000000000e+00 1.6907299999999999e+01 xlo xhi
0.0000000000000000e+00 1.6920700000000000e+01 ylo yhi
0.0000000000000000e+00 1.6929800000000000e+01 zlo zhi

Masses

1 6.941
2 16
3 19
4 12.01
5 32.06
6 14.01
7 16
8 1.008

Pair Coeffs # lj/cut/coul/long

1 0.0182661 2.126
2 0.209859 2.96
3 0.0609584 3.118
4 0.109326 3.4
5 0.249833 3.564
6 0.169886 3.25
7 0.155323 3.165
8 0 0

Bond Coeffs # harmonic

1 492.67 1.466
2 363.556 1.344
3 248.733 1.782
4 256.929 1.752
5 529.23 1.012

Angle Coeffs # harmonic

1 41.2526 108.48
2 45.27 121.88
3 43.0716 107.06
4 81.1647 109.67
5 71.2115 107.16
6 39.3938 103.12
7 109.646 119.18
8 37.9249 113.24

Dihedral Coeffs # charmm

1 0.143897 3 0 0
2 0.143897 3 0 0
3 0.499666 3 180 0
4 6.79545 1 180 0
5 0.499666 3 180 0
6 6.79545 1 180 0

Atoms # full

276 46 7 -8.1999999999999995e-01 1.0729878504291084e+00 6.2577557143629878e+00 2.6386478487705873e+00 1 1 1
278 46 8 4.0999999999999998e-01 1.6177038265364805e+00 6.3282186872847479e+00 3.5114737198215860e+00 1 1 1
307 56 8 4.0999999999999998e-01 2.5224168229013344e+00 2.2357545154155343e+00 3.0177125502573814e+00 -2 2 -2
306 56 7 -8.1999999999999995e-01 2.1729133933809273e+00 3.1645572252288758e+00 3.2583266167255593e+00 -2 2 -2
308 56 8 4.0999999999999998e-01 2.7231404389199465e+00 3.7911742565653199e+00 3.8897903488601555e+00 -2 2 -2
226 29 8 4.0999999999999998e-01 4.0476051239198201e+00 5.3876195908377769e+00 5.0161929118350637e+00 -1 -3 1
195 27 2 -4.6100000000000002e-01 9.4960300146945176e-02 5.8848764528764219e+00 5.6680725359373687e+00 1 0 -1
227 29 8 4.0999999999999998e-01 2.4174828995503295e+00 5.6069243822847294e+00 5.6640055576229846e+00 -1 -3 1
225 29 7 -8.1999999999999995e-01 3.0607328727684044e+00 5.2917233544798643e+00 4.8706558463073595e+00 -1 -3 1
166 25 3 -1.3800000000000001e-01 3.6204974839942539e+00 6.5832745696399648e+00 1.1579994996679099e+00 0 1 0
250 37 8 4.0999999999999998e-01 8.0881959736232789e-01 1.1600733242507280e+00 1.2757630865345848e+00 2 3 -3
205 27 2 -4.6100000000000002e-01 8.7991915998182069e-01 3.1180397291181308e+00 7.1355700158904742e+00 1 0 -1
209 27 3 -1.3800000000000001e-01 1.8631201578172556e+00 5.9831522193564872e+00 7.5060327197471626e+00 1 0 -1
170 25 3 -1.3800000000000001e-01 4.7762040111238013e+00 5.2786975725214349e+00 2.3095961233355919e+00 0 1 0
15 15 2 -4.6100000000000002e-01 3.5232931036859050e+00 5.0348287116854362e-01 4.6388017229542902e+00 0 -1 -1
9 9 1 8.0000000000000004e-01 8.1774679723302179e-01 3.9824651096346098e+00 1.7117701794898388e+00 1 -1 1
277 46 8 4.0999999999999998e-01 1.7229010460562448e+00 6.4540267307468167e+00 1.8616091657711196e+00 1 1 1
167 25 4 3.1900000000000001e-01 4.2255263841874822e+00 5.4475531672806827e+00 1.1401007165744161e+00 0 1 0
249 37 7 -8.1999999999999995e-01 3.6610377082919238e-01 2.0025185189545911e+00 8.7036073239058187e-01 2 3 -3
25 15 2 -4.6100000000000002e-01 2.9271309568389170e+00 5.8418293654858888e-01 1.9168625729467879e+00 0 -1 -1
173 25 3 -1.3800000000000001e-01 3.1629315219899854e+00 4.5258225407135164e+00 9.2279467260786652e-01 0 1 0
255 39 7 -8.1999999999999995e-01 5.4433697235851819e-01 5.1389835363059300e+00 6.3104387707441740e-03 -4 -2 3
16 15 3 -1.3800000000000001e-01 5.3979183408515619e+00 1.7853431605791825e+00 2.6070699506195960e+00 0 -1 -1
204 27 5 9.1100000000000003e-01 2.0767628296570531e-01 4.0942006610816630e+00 8.0201114261123028e+00 1 0 -1
298 53 8 4.0999999999999998e-01 1.8465590347015799e+00 3.6826025078694047e-01 5.4127230111778077e+00 -1 0 3
212 28 4 3.1900000000000001e-01 8.2819498026158129e+00 5.2303730759613876e+00 8.3673860658997334e+00 0 0 -1
216 28 6 -5.8799999999999997e-01 1.0742663905000224e+01 3.7979803104549612e+00 8.3628475460333824e+00 0 0 -1
215 28 3 -1.3800000000000001e-01 9.0713088125773016e+00 6.1373563437782392e+00 7.6696397802797218e+00 0 0 -1
310 57 8 4.0999999999999998e-01 9.6013348746490355e+00 6.0290926993070348e-01 3.5235284590291549e+00 -1 -2 0
17 15 4 3.1900000000000001e-01 6.0226227034644531e+00 1.0249119276791177e+00 3.4687233143898948e+00 0 -1 -1
23 15 3 -1.3800000000000001e-01 6.6153077374595455e+00 1.6864589593439772e+00 4.4574426965600100e+00 0 -1 -1
210 28 2 -4.6100000000000002e-01 9.3683591566546962e+00 3.1379607619895000e+00 6.8442409911331357e+00 0 0 -1
103 20 4 3.1900000000000001e-01 7.7503001070955220e+00 5.1605486667443206e+00 4.0309709114448955e+00 -1 0 0
104 20 3 -1.3800000000000001e-01 7.2131871661425979e+00 6.2306818361517893e+00 3.3910325139797712e+00 -1 0 0
20 15 3 -1.3800000000000001e-01 7.0034763716243447e+00 3.6113828189827801e-01 2.8150119030755234e+00 0 -1 -1
102 20 3 -1.3800000000000001e-01 6.6566787812699948e+00 4.4513936114604888e+00 4.3702590776732713e+00 -1 0 0
97 20 2 -4.6100000000000002e-01 8.2573909251216655e+00 4.4117417167529940e+00 1.4602636074641722e+00 -1 0 0
100 20 2 -4.6100000000000002e-01 9.3233871312852514e+00 2.9379059743368292e+00 3.3031029019501843e+00 -1 0 0
101 20 3 -1.3800000000000001e-01 8.3428636132973306e+00 5.5556340120438348e+00 5.1542319680089372e+00 -1 0 0
99 20 5 9.1100000000000003e-01 8.8013461291908222e+00 4.2248153395967369e+00 2.8523549901482883e+00 -1 0 0
94 20 2 -4.6100000000000002e-01 9.1495479214438191e+00 6.8054837797842147e+00 1.3748622596500675e+00 -1 0 0
96 20 6 -5.8799999999999997e-01 1.0251252435366270e+01 5.1099354564384587e+00 2.7681995995802118e+00 -1 0 0
93 20 5 9.1100000000000003e-01 1.0468114810476923e+01 6.3355625390394161e+00 1.5776525802611241e+00 -1 0 0
169 25 2 -4.6100000000000002e-01 6.3786527746581516e+00 6.4643993602110648e+00 3.3462890463224343e-01 0 1 0
192 26 3 -1.3800000000000001e-01 5.9324473938873492e+00 9.5260717277578244e-01 7.6985687143425867e+00 -1 1 -1
91 20 3 -1.3800000000000001e-01 1.0678619925014679e+01 7.8779005981778489e+00 3.5064371173991327e+00 -1 0 0
8 8 1 8.0000000000000004e-01 7.7088545380857694e+00 7.9647661955716282e+00 5.3672871312101011e-01 0 1 0
329 63 8 4.0999999999999998e-01 1.1071107838515132e+01 5.3341765235112861e+00 4.3920258234569189e+00 1 1 -1
90 20 2 -4.6100000000000002e-01 1.1148196483572368e+01 5.6724849908261641e+00 4.8658500947148769e-01 -1 0 0
211 28 3 -1.3800000000000001e-01 7.0336351504595145e+00 5.1686546581824304e+00 7.8373486822885416e+00 0 0 -1
213 28 5 9.1100000000000003e-01 9.0440762378692163e+00 3.5812601992579047e+00 8.1879899781006475e+00 0 0 -1
35 16 3 -1.3800000000000001e-01 7.9285002099928032e+00 1.6570175684500159e+00 4.4821120122736297e-01 2 -1 2
339 67 7 -8.1999999999999995e-01 1.4507487881372496e+01 6.3313171129629762e+00 4.4428079927806163e-01 -2 4 -3
14 14 1 8.0000000000000004e-01 1.6332452867689980e+01 6.5087502805668782e+00 1.5180612198207766e+00 0 0 -1
294 52 7 -8.1999999999999995e-01 1.2651562400653301e+01 2.1138795472006171e+00 5.8032367498131769e+00 2 0 4
12 12 1 8.0000000000000004e-01 1.1395935851127200e+01 3.6011509930219505e+00 6.3799246621771379e+00 -2 0 3
285 49 7 -8.1999999999999995e-01 1.3191120847954108e+01 4.1795838248587351e+00 1.5789683301878863e+00 3 -3 4
295 52 8 4.0999999999999998e-01 1.2634117531085360e+01 1.2729582044628622e+00 6.4009314384789224e+00 2 0 4
296 52 8 4.0999999999999998e-01 1.2715062607890156e+01 1.9954937384041174e+00 4.7869308583031671e+00 2 0 4
200 27 3 -1.3800000000000001e-01 1.5128801635570539e+01 7.4215689515090189e+00 7.6735166055090396e+00 0 0 -1
135 23 2 -4.6100000000000002e-01 1.6904433657144299e+01 8.4365239323344383e+00 8.9738717422738978e-01 -1 -3 -1
201 27 6 -5.8799999999999997e-01 1.5576441122937661e+01 4.5053784130619148e+00 7.1945696946913591e+00 0 0 -1
157 24 2 -4.6100000000000002e-01 1.1944898202173722e+01 6.2756425877933467e-02 7.7973472333924647e+00 -1 2 -1
196 27 3 -1.3800000000000001e-01 1.5000551548901475e+01 8.1239415869481046e+00 5.6315783683436145e+00 0 0 -1
312 58 7 -8.1999999999999995e-01 1.2748306885639755e+01 2.6133573245396069e-01 8.6754125771065282e-01 1 -1 -2
317 59 8 4.0999999999999998e-01 1.4481766033257362e+01 1.5454106682646493e+00 6.0629911690140093e+00 -1 2 3
287 49 8 4.0999999999999998e-01 1.2949746812632554e+01 3.8863830800673171e+00 6.1805993356526179e-01 3 -3 4
238 33 8 4.0999999999999998e-01 1.5649364491529065e+01 4.6528564051974559e+00 3.3628326529408890e+00 0 -2 5
328 63 8 4.0999999999999998e-01 1.2395680467770712e+01 5.9589226863174201e+00 5.1406310936234547e+00 1 1 -1
92 20 4 3.1900000000000001e-01 1.1345671223610330e+01 7.6575688653974980e+00 2.3610867706740675e+00 -1 0 0
98 20 3 -1.3800000000000001e-01 1.2624941898848407e+01 7.3175419699143465e+00 2.5871454854950025e+00 -1 0 0
315 59 7 -8.1999999999999995e-01 1.5482090141396197e+01 1.2921422800994424e+00 6.4057902695378575e+00 -1 2 3
316 59 8 4.0999999999999998e-01 1.6165934461446181e+01 1.4648164111563136e+00 5.7511490464237678e+00 -1 2 3
323 61 8 4.0999999999999998e-01 1.2725089105337608e+01 2.6076183209934456e+00 2.4796250043959764e+00 -2 3 0
321 61 7 -8.1999999999999995e-01 1.2447057964619070e+01 1.8066198192596228e+00 3.0642228154483377e+00 -2 3 0
322 61 8 4.0999999999999998e-01 1.2434553457772941e+01 1.0693621063286864e+00 2.3561223001953353e+00 -2 3 0
197 27 4 3.1900000000000001e-01 1.4762826436126856e+01 7.1266050427491825e+00 6.4584845267987774e+00 0 0 -1
199 27 2 -4.6100000000000002e-01 1.4943674125197202e+01 5.0713133951033633e+00 4.7175551066303019e+00 0 0 -1
13 13 1 8.0000000000000004e-01 1.6088082114679189e+01 1.4695563385178463e+00 8.4219685524722170e+00 -6 1 0
239 33 8 4.0999999999999998e-01 1.4864719709886792e+01 4.0419797615453330e+00 2.0346180744254796e+00 0 -2 5
203 27 3 -1.3800000000000001e-01 1.3407024080363705e+01 6.9841104308890261e+00 6.5316834011669087e+00 0 0 -1
327 63 7 -8.1999999999999995e-01 1.1579256197423463e+01 5.2735398401639282e+00 5.2739061664960625e+00 1 1 -1
286 49 8 4.0999999999999998e-01 1.2540320549869614e+01 4.9208421524714971e+00 1.8932489382817626e+00 3 -3 4
237 33 7 -8.1999999999999995e-01 1.5765735879055205e+01 4.5465634423528654e+00 2.3336439722525184e+00 0 -2 5
198 27 5 9.1100000000000003e-01 1.5602516799392859e+01 5.6934485188181538e+00 5.8250900836487505e+00 0 0 -1
340 67 8 4.0999999999999998e-01 1.3916294555659109e+01 5.7507865769940212e+00 1.0184422653557370e+00 -2 4 -3
269 43 8 4.0999999999999998e-01 1.1947050299379191e+01 2.1711602034985238e+00 1.1477639433062806e-01 -1 -2 -2
50 17 3 -1.3800000000000001e-01 4.9423036102279855e-01 3.4587703702222701e+00 1.1862561839144885e+01 -3 0 -2
47 17 4 3.1900000000000001e-01 7.3800133823133884e-01 2.5906032369918330e+00 1.2908633875839826e+01 -3 0 -2
53 17 3 -1.3800000000000001e-01 9.1137623739747264e-01 1.3780049235331784e+00 1.2378563024176481e+01 -3 0 -2
174 25 5 9.1100000000000003e-01 3.6202062659518841e+00 6.8142517246146683e+00 1.4937446924172134e+01 0 1 -1
176 25 3 -1.3800000000000001e-01 3.7909220767252290e+00 6.0268669841346769e+00 1.2504386717944492e+01 0 1 -1
46 17 3 -1.3800000000000001e-01 1.8748528477521591e+00 2.9837293549715675e+00 1.3558198668783190e+01 -3 0 -2
171 25 6 -5.8799999999999997e-01 5.1662855988569731e+00 6.1618571966473299e+00 1.5284760694894286e+01 0 1 -1
177 25 3 -1.3800000000000001e-01 4.1305516229731127e+00 8.0670563818274488e+00 1.2833358526763519e+01 0 1 -1
235 32 8 4.0999999999999998e-01 4.9662223198940758e+00 2.8215196578496440e+00 1.5267988117190631e+01 0 -5 -2
172 25 2 -4.6100000000000002e-01 2.7019500501546370e+00 5.8404868727974222e+00 1.5467921508801549e+01 0 1 -1
168 25 5 9.1100000000000003e-01 5.4799844019794097e+00 5.4202202292739416e+00 1.6764669766237851e+01 0 1 -1
175 25 2 -4.6100000000000002e-01 3.7234867341667681e+00 8.1971083698193699e+00 1.5543626254675718e+01 0 1 -1
178 25 4 3.1900000000000001e-01 3.3899741652450230e+00 7.0556107599286788e+00 1.3174205038072348e+01 0 1 -1
236 32 8 4.0999999999999998e-01 4.3800985976300630e+00 1.3044808623623092e+00 1.4794857158269048e+01 0 -5 -2
234 32 7 -8.1999999999999995e-01 5.0567936080786247e+00 2.0676210977314002e+00 1.4537273042329923e+01 0 -5 -2
207 27 3 -1.3800000000000001e-01 4.1774017289884985e-01 6.4819226777262759e+00 9.0144293620938765e+00 1 0 -1
194 26 3 -1.3800000000000001e-01 4.1889185542396321e+00 1.4903376088045488e+00 8.5866012627176982e+00 -1 1 -1
206 27 3 -1.3800000000000001e-01 1.9959336133448475e+00 5.2200035495094079e+00 9.5933768715047574e+00 1 0 -1
257 39 8 4.0999999999999998e-01 1.3584118207760960e+00 5.2671646596948491e+00 1.6341938760218500e+01 -4 -2 2
80 19 3 -1.3800000000000001e-01 2.9037416959395461e+00 8.4331712579031652e+00 9.7217106958833011e+00 0 0 0
193 26 4 3.1900000000000001e-01 5.0226876214114293e+00 5.6699954715579204e-01 8.5647076138262168e+00 -1 1 -1
179 25 3 -1.3800000000000001e-01 2.1380608255648137e+00 7.2918470046495791e+00 1.2787052195903678e+01 0 1 -1
208 27 4 3.1900000000000001e-01 1.1488427549360491e+00 5.5324819103134129e+00 8.5681933488172319e+00 1 0 -1
280 47 8 4.0999999999999998e-01 8.3187114010282137e+00 4.1252769978310777e+00 1.6541657466128441e+01 1 -4 -3
189 26 5 9.1100000000000003e-01 5.8704087396307649e+00 3.5013192051457215e-01 1.0185499454250408e+01 -1 1 -1
31 16 3 -1.3800000000000001e-01 6.5373441823112559e+00 2.2143143392292933e-01 1.6519955431374139e+01 2 -1 1
292 51 8 4.0999999999999998e-01 8.5240133348813369e+00 2.2387222708462284e-01 1.1016555201062502e+01 0 -1 1
332 64 8 4.0999999999999998e-01 1.0576876794186832e+01 3.5477302419178987e+00 1.3158335685734210e+01 1 -1 3
187 26 2 -4.6100000000000002e-01 6.1385557225236678e+00 1.6051764005584606e+00 1.0853826006348461e+01 -1 1 -1
165 25 2 -4.6100000000000002e-01 5.9196260874533433e+00 4.1046907759150422e+00 1.6223968255069668e+01 0 1 -1
32 16 4 3.1900000000000001e-01 7.8276494435771236e+00 5.5892492563362062e-01 1.6621732210891849e+01 2 -1 1
33 16 5 9.1100000000000003e-01 8.5492155144156676e+00 6.9745025117166426e-01 1.4986709759014477e+01 2 -1 1
7 7 1 8.0000000000000004e-01 6.4498755979506930e+00 2.4067018887807046e+00 1.2814740206261122e+01 -4 5 3
261 41 7 -8.1999999999999995e-01 7.0665218384185415e+00 4.4691716863844224e+00 1.3428576541700565e+01 -1 0 -1
126 22 6 -5.8799999999999997e-01 9.4596311888168820e+00 7.3953449333428596e+00 1.3054105511312693e+01 -2 -2 -1
34 16 2 -4.6100000000000002e-01 7.9352034968279943e+00 1.6344841743287426e+00 1.4042129625687780e+01 2 -1 1
291 51 7 -8.1999999999999995e-01 9.3784609673172419e+00 7.9071530950969160e-01 1.1162061568499611e+01 0 -1 1
279 47 7 -8.1999999999999995e-01 8.8064659788866599e+00 4.0715414362609605e+00 1.5664056370417114e+01 1 -4 -3
263 41 8 4.0999999999999998e-01 7.4313769116569173e+00 5.3021538355338649e+00 1.2946530606753369e+01 -1 0 -1
262 41 8 4.0999999999999998e-01 6.4908333996863989e+00 4.9448284428255205e+00 1.4145755812897605e+01 -1 0 -1
217 28 2 -4.6100000000000002e-01 1.0052940178673476e+01 3.9607020214868580e+00 1.0899130469012926e+01 0 0 -1
293 51 8 4.0999999999999998e-01 9.2606052663154923e+00 1.6713007799197541e+00 1.0632060068159452e+01 0 -1 1
123 22 5 9.1100000000000003e-01 1.0067213712845753e+01 7.5287771541578907e+00 1.4611772836140313e+01 -2 -2 -1
219 28 5 9.1100000000000003e-01 1.1224124918847709e+01 3.8262940907818743e+00 1.0010053874456489e+01 0 0 -1
218 28 3 -1.3800000000000001e-01 8.1825163325388992e+00 5.6449964545744589e+00 9.6632669167783973e+00 0 0 -1
124 22 2 -4.6100000000000002e-01 1.0863200003919797e+01 6.3111379484596135e+00 1.4517429709990745e+01 -2 -2 -1
281 47 8 4.0999999999999998e-01 8.1644121229501838e+00 4.2281632788333052e+00 1.4903249731526358e+01 1 -4 -3
127 22 2 -4.6100000000000002e-01 6.9280240988213695e+00 7.2437186073094004e+00 1.2411998326195119e+01 -2 -2 -1
30 16 2 -4.6100000000000002e-01 9.9365491742248206e+00 9.7739041492688283e-01 1.5223819107227406e+01 2 -1 1
120 22 2 -4.6100000000000002e-01 8.8619296244120775e+00 7.6356858731089652e+00 1.5413567593173443e+01 -2 -2 -1
129 22 5 9.1100000000000003e-01 8.0300098527906307e+00 8.1969967121935987e+00 1.2503272002521188e+01 -2 -2 -1
214 28 2 -4.6100000000000002e-01 8.5131392468640250e+00 2.7120209711472376e+00 9.2732500068074959e+00 0 0 -1
2 2 1 8.0000000000000004e-01 1.1139774815994974e+01 4.3396324505724646e+00 1.5586948758059769e+01 1 -2 1
221 28 3 -1.3800000000000001e-01 1.3462366385573732e+01 5.1019791862137049e+00 9.5927446182721763e+00 0 0 -1
243 35 7 -8.1999999999999995e-01 1.3554341836861937e+01 5.6498788082529225e+00 1.4782377726165151e+01 2 3 2
300 54 7 -8.1999999999999995e-01 1.4877584655731502e+01 3.6965137497527129e-01 9.5761381105461592e+00 2 1 -2
267 43 7 -8.1999999999999995e-01 1.2390312842876728e+01 2.8510805163384090e+00 1.6400893808358219e+01 -1 -2 -3
256 39 8 4.0999999999999998e-01 1.6705579296289290e+01 4.6933479209011031e+00 1.6344165798589849e+01 -5 -2 2
51 17 6 -5.8799999999999997e-01 1.6417403927858427e+01 1.3856669156196870e+00 1.5320491859289037e+01 -4 0 -2
341 67 8 4.0999999999999998e-01 1.4240169602938572e+01 6.0083763184855306e+00 1.6404609896855565e+01 -2 4 -4
222 28 3 -1.3800000000000001e-01 1.2535796753416804e+01 5.3938177768502582e+00 1.1533815576856949e+01 0 0 -1
245 35 8 4.0999999999999998e-01 1.2992862083386568e+01 5.9523403546581140e+00 1.3938749461758785e+01 2 3 2
331 64 8 4.0999999999999998e-01 1.1938289868049589e+01 2.6039744389865933e+00 1.3277910195836531e+01 1 -1 3
330 64 7 -8.1999999999999995e-01 1.1493257212735912e+01 3.3949153715838096e+00 1.3694779284018990e+01 1 -1 3
289 50 8 4.0999999999999998e-01 1.3670160923820918e+01 1.7364508799068552e+00 1.2538536068857091e+01 -2 -2 1
49 17 2 -4.6100000000000002e-01 1.6281043961651488e+01 3.8040853737918110e+00 1.4922879172215730e+01 -4 0 -2
301 54 8 4.0999999999999998e-01 1.4066219338594928e+01 9.4426307955376687e-01 9.7727969709208757e+00 2 1 -2
244 35 8 4.0999999999999998e-01 1.4190799635563053e+01 4.8972900453446266e+00 1.4491532593171103e+01 2 3 2
268 43 8 4.0999999999999998e-01 1.2702659710574526e+01 2.4163124920212313e+00 1.5530744166793117e+01 -1 -2 -3
55 17 2 -4.6100000000000002e-01 1.4013476131074421e+01 6.8809744673889173e-01 1.5004168180440267e+01 -4 0 -2
202 27 2 -4.6100000000000002e-01 1.6429949513929582e+01 3.3912660092920430e+00 9.1104915605569214e+00 0 0 -1
45 17 2 -4.6100000000000002e-01 1.5065513511728469e+01 2.3143549209481864e+00 1.3103933325592283e+01 -4 0 -2
223 28 4 3.1900000000000001e-01 1.2308440623639015e+01 5.2496887212511227e+00 1.0275835303615404e+01 0 0 -1
220 28 2 -4.6100000000000002e-01 1.1888633010825600e+01 2.5038124818421426e+00 1.0145831840879961e+01 0 0 -1
54 17 5 9.1100000000000003e-01 1.5282546711065841e+01 4.1570277051450173e-02 1.5297385690029234e+01 -4 0 -2
224 28 3 -1.3800000000000001e-01 1.1677332791107801e+01 6.3642023137007824e+00 9.8765805046886985e+00 0 0 -1
288 50 7 -8.1999999999999995e-01 1.2761375973398929e+01 1.1694029983765959e+00 1.2654321817834271e+01 -2 -2 1
48 17 5 9.1100000000000003e-01 1.6257585611297451e+01 2.6216016301560838e+00 1.4000369978587090e+01 -4 0 -2
290 50 8 4.0999999999999998e-01 1.2828601876909151e+01 4.7818420729853744e-01 1.3406990513146248e+01 -2 -2 1
6 6 1 8.0000000000000004e-01 1.1346387485349890e+01 2.9174976824843629e-01 1.1401765372805357e+01 -1 0 0
313 58 8 4.0999999999999998e-01 1.3048529915214434e+01 4.8638989541404515e-01 1.6863315257908376e+01 1 -1 -3
251 37 8 4.0999999999999998e-01 1.6848909591924965e+01 1.7609218591635551e+00 1.6860506482210013e+01 1 3 -4
273 45 7 -8.1999999999999995e-01 4.0508414984933117e+00 1.3300385273870710e+01 5.7172470603157146e+00 -2 -2 -2
21 15 6 -5.8799999999999997e-01 4.3622732323269044e+00 1.5668845531575702e+01 2.9658906866182662e+00 0 -2 -1
282 48 7 -8.1999999999999995e-01 4.2470782614163727e-01 1.3468078422244609e+01 4.7148683872423076e+00 0 -2 1
24 15 5 9.1100000000000003e-01 2.9137763308472384e+00 1.6091130935023987e+01 2.1187013875210394e+00 0 -2 -1
145 23 2 -4.6100000000000002e-01 1.6504526326394313e+00 1.1804502446001974e+01 2.7510385444597207e+00 0 -3 -1
28 15 4 3.1900000000000001e-01 3.0306449060947624e+00 1.5279537878512061e+01 5.7748062634536068e-01 0 -2 -1
144 23 5 9.1100000000000003e-01 2.5460769832679655e+00 1.0746807395687849e+01 2.4119285144423457e+00 0 -3 -1
142 23 2 -4.6100000000000002e-01 3.8337355986808439e+00 1.1117621387633131e+01 1.7523971060460510e+00 0 -3 -1
284 48 8 4.0999999999999998e-01 8.6876545166381025e-01 1.2536473812387337e+01 4.8258734138833894e+00 0 -2 1
274 45 8 4.0999999999999998e-01 3.5907618943885873e+00 1.3944624023670647e+01 5.0740785110343598e+00 -2 -2 -2
22 15 2 -4.6100000000000002e-01 2.0567392480409294e+00 1.5369931204844855e+01 3.1064889162953184e+00 0 -2 -1
275 45 8 4.0999999999999998e-01 3.2658357525262809e+00 1.2794763097153423e+01 6.1814028653864606e+00 -2 -2 -2
26 15 3 -1.3800000000000001e-01 3.3918555057205970e+00 1.4014507035445545e+01 7.1540086191175323e-01 0 -2 -1
265 42 8 4.0999999999999998e-01 8.3193146245860627e-01 1.4685725015065964e+01 7.8696104963008642e+00 1 -2 4
19 15 2 -4.6100000000000002e-01 5.4567546846969970e+00 1.5824738218752932e+01 5.0584732893505731e+00 0 -2 -1
148 23 4 3.1900000000000001e-01 2.9371850993256476e+00 9.5794186654973306e+00 3.8162065048803422e+00 0 -3 -1
283 48 8 4.0999999999999998e-01 1.1594560229598963e-01 1.3733315203284235e+01 5.6924429470762758e+00 0 -2 1
147 23 3 -1.3800000000000001e-01 3.6251247096822237e+00 1.0275724277089477e+01 4.7641532368849218e+00 0 -3 -1
82 19 2 -4.6100000000000002e-01 7.4545410215995844e-01 1.1387189641604710e+01 6.3594418084064603e+00 0 0 0
141 23 6 -5.8799999999999997e-01 1.8992924314945627e+00 9.7542993034044514e+00 1.1205658551315152e+00 0 -3 -1
85 19 2 -4.6100000000000002e-01 1.6131262984747960e+00 9.2521258972985159e+00 7.5764756839285710e+00 0 0 0
84 19 5 9.1100000000000003e-01 1.1851754599281734e+00 1.0669524980296117e+01 7.5930808417604405e+00 0 0 0
76 19 3 -1.3800000000000001e-01 4.3363597120160504e+00 8.5598352573093646e+00 8.0675338247525730e+00 0 0 0
297 53 7 -8.1999999999999995e-01 1.0608686303367052e+00 1.6670493852147981e+01 5.5728143505283070e+00 -1 -1 3
18 15 5 9.1100000000000003e-01 4.8238368650101977e+00 1.6797524323468423e+01 4.2621209009247085e+00 0 -2 -1
138 23 5 9.1100000000000003e-01 2.3777223898114047e-01 9.8533298340625155e+00 6.6618052918468640e-01 0 -3 -1
10 10 1 8.0000000000000004e-01 3.0033707161494017e-01 1.5473882387959842e+01 4.1618566412495301e+00 2 -2 -1
264 42 7 -8.1999999999999995e-01 4.1180566091624439e-02 1.4429239371098349e+01 7.2940785181812382e+00 1 -2 4
146 23 3 -1.3800000000000001e-01 1.8385439128542567e+00 9.0679150318611512e+00 4.3805661105088465e+00 0 -3 -1
191 26 3 -1.3800000000000001e-01 4.3976789586751188e+00 1.6416983285667122e+01 8.0650372490433533e+00 -1 0 -1
81 19 6 -5.8799999999999997e-01 2.4874891370975423e+00 1.1616431287199125e+01 8.2103377894427680e+00 0 0 0
149 23 3 -1.3800000000000001e-01 3.6576249190040495e+00 8.4645707409341391e+00 3.4804907375790384e+00 0 -3 -1
299 53 8 4.0999999999999998e-01 1.2987049660716861e+00 1.6463885027858495e+01 6.5548615794697147e+00 -1 -1 3
247 36 8 4.0999999999999998e-01 5.0362356366619991e+00 8.5372692745376355e+00 2.2848711485497701e+00 2 -1 -2
336 66 7 -8.1999999999999995e-01 2.6526126477219396e+00 1.4299914604546412e+01 8.4642388961970259e+00 -3 0 3
338 66 8 4.0999999999999998e-01 3.6773794248817011e+00 1.4490789165386254e+01 8.4099998928079422e+00 -3 0 3
4 4 1 8.0000000000000004e-01 6.0479068717060311e+00 1.3772127264393875e+01 5.6767627474410469e+00 0 -1 -3
305 55 8 4.0999999999999998e-01 6.1328551274236887e+00 1.3010893245672541e+01 7.8864475220578081e+00 -1 -3 -3
303 55 7 -8.1999999999999995e-01 6.6002214011181746e+00 1.3828638966352571e+01 7.5458426244261831e+00 -1 -3 -3
164 24 3 -1.3800000000000001e-01 9.1873783895425518e+00 1.4335434497750416e+01 7.3832812515292989e+00 -1 1 -1
248 36 8 4.0999999999999998e-01 6.4514456984063351e+00 9.5263210615277263e+00 2.1962438169802811e+00 2 -1 -2
304 55 8 4.0999999999999998e-01 7.0850186575247909e+00 1.4394660389985640e+01 8.2647142210821389e+00 -1 -3 -3
324 62 7 -8.1999999999999995e-01 8.7486543829854444e+00 9.8132972146564565e+00 9.4050510845062185e-01 -3 0 -2
61 18 3 -1.3800000000000001e-01 8.4537119180457942e+00 1.2472147013362001e+01 7.3143616629742780e-01 1 0 1
74 18 3 -1.3800000000000001e-01 7.1476366152435808e+00 9.7036103888809979e+00 7.1316376862451794e+00 1 0 1
72 18 3 -1.3800000000000001e-01 9.1100860869761533e+00 9.0617425604680140e+00 6.1888536759410329e+00 1 0 1
67 18 2 -4.6100000000000002e-01 6.5618025440864356e+00 1.1627769363502280e+01 5.1443372780346328e+00 1 0 1
70 18 2 -4.6100000000000002e-01 7.3417282878577836e+00 9.5632674276278689e+00 3.8631280005110780e+00 1 0 1
71 18 3 -1.3800000000000001e-01 8.8457834314358124e+00 1.1032623722323109e+01 7.0536454478713297e+00 1 0 1
69 18 5 9.1100000000000003e-01 7.6844447370604101e+00 1.0711287367824307e+01 4.7427953241633647e+00 1 0 1
62 18 4 3.1900000000000001e-01 7.7271581169593890e+00 1.2955978064001519e+01 1.7421208431777924e+00 1 0 1
73 18 4 3.1900000000000001e-01 8.2202522539168807e+00 1.0081137235388301e+01 6.3786340462923272e+00 1 0 1
66 18 6 -5.8799999999999997e-01 8.9017812634078179e+00 1.1554086489119424e+01 3.8255443635807196e+00 1 0 1
63 18 5 9.1100000000000003e-01 8.6325893397997913e+00 1.3180079849638549e+01 3.2812893664033282e+00 1 0 1
64 18 2 -4.6100000000000002e-01 1.0020617295423184e+01 1.3682138478604889e+01 3.1088160292013143e+00 1 0 1
60 18 2 -4.6100000000000002e-01 7.9755330366315089e+00 1.3869998602930940e+01 4.3110555931306118e+00 1 0 1
65 18 3 -1.3800000000000001e-01 7.1484797152229893e+00 1.4098708908116070e+01 1.3001781964497932e+00 1 0 1
68 18 3 -1.3800000000000001e-01 6.7615096913331252e+00 1.2057348894495689e+01 1.8985460177428977e+00 1 0 1
161 24 3 -1.3800000000000001e-01 9.0692978122602383e+00 1.6591677004408279e+01 7.3596080970946449e+00 -1 1 -1
163 24 4 3.1900000000000001e-01 9.7634376542872054e+00 1.5526518218900913e+01 7.7749937569757455e+00 -1 1 -1
325 62 8 4.0999999999999998e-01 8.8791098597407370e+00 1.0066075471584544e+01 1.9201948060829512e+00 -3 0 -2
326 62 8 4.0999999999999998e-01 9.3720058673665942e+00 1.0417057162917851e+01 4.7637962624009089e-01 -3 0 -2
119 21 3 -1.3800000000000001e-01 1.1206445861898851e+01 1.1996232858466550e+01 1.1471212315464439e+00 -1 -1 0
11 11 1 8.0000000000000004e-01 1.1268248791067695e+01 1.5206220163887124e+01 3.8011002091598929e+00 -2 1 -2
38 16 3 -1.3800000000000001e-01 8.4573861546488267e+00 1.6504554202318946e+01 4.5172381317911947e-01 2 -2 2
309 57 7 -8.1999999999999995e-01 1.0015819320572437e+01 1.6731210471123596e+01 2.9253489227817369e+00 -1 -3 0
246 36 7 -8.1999999999999995e-01 5.7684831416686864e+00 8.9321886546864118e+00 1.6989966689800449e+00 2 -1 -2
311 57 8 4.0999999999999998e-01 9.5697837860105377e+00 1.6807421232207957e+01 1.9855070477158692e+00 -1 -3 0
156 24 6 -5.8799999999999997e-01 1.2424097603252564e+01 1.4498325918577311e+01 7.9596228237666544e+00 -1 1 -1
314 58 8 4.0999999999999998e-01 1.2969015181600636e+01 1.6118680319312769e+01 8.6976621448657521e-01 1 -2 -2
241 34 8 4.0999999999999998e-01 1.5292385809829396e+01 1.5864130186995419e+01 3.2275565424741002e+00 -6 0 -2
159 24 5 9.1100000000000003e-01 1.1460497024795588e+01 1.5699859182225943e+01 7.2457383947184804e+00 -1 1 -1
160 24 2 -4.6100000000000002e-01 1.1537865251431084e+01 1.5385238879267026e+01 5.8394700507596404e+00 -1 1 -1
254 38 8 4.0999999999999998e-01 1.4034027182088172e+01 1.5264063548621783e+01 5.5848602413177826e+00 -2 -3 1
240 34 7 -8.1999999999999995e-01 1.6024657003986306e+01 1.6092713289926891e+01 2.5984993826153095e+00 -6 0 -2
111 21 6 -5.8799999999999997e-01 1.2937113506709347e+01 1.3564905011073138e+01 3.8205907214853472e+00 -1 -1 0
87 19 3 -1.3800000000000001e-01 1.5631547615526140e+01 1.0445829297777610e+01 8.0328548267041970e+00 -1 0 0
95 20 3 -1.3800000000000001e-01 1.1327936776883723e+01 8.7598301961396139e+00 1.6029681202201769e+00 -1 0 0
118 21 4 3.1900000000000001e-01 1.2575669460890477e+01 1.2105658549408364e+01 1.1447041683745871e+00 -1 -1 0
107 21 4 3.1900000000000001e-01 1.2450909944347460e+01 1.1377466664845995e+01 5.3939191478661126e+00 -1 -1 0
116 21 3 -1.3800000000000001e-01 1.3061399865446671e+01 1.1008263259723174e+01 1.7609868726977409e+00 -1 -1 0
113 21 3 -1.3800000000000001e-01 1.2398352953647512e+01 1.0269507408410982e+01 4.6704305842329061e+00 -1 -1 0
115 21 2 -4.6100000000000002e-01 1.4657262019469224e+01 1.3673551627257160e+01 1.8708954565359193e+00 -1 -1 0
105 21 2 -4.6100000000000002e-01 1.4920013072960403e+01 1.1694936392953236e+01 4.1494644029431731e+00 -1 -1 0
108 21 5 9.1100000000000003e-01 1.3878047456096050e+01 1.2514191442084961e+01 4.8678395347390016e+00 -1 -1 0
110 21 3 -1.3800000000000001e-01 1.2556034098305004e+01 1.0868757601474512e+01 6.6524821104448959e+00 -1 -1 0
112 21 2 -4.6100000000000002e-01 1.2437806777486513e+01 1.4741401278950610e+01 1.8418787330102713e+00 -1 -1 0
139 23 2 -4.6100000000000002e-01 1.6468608136727859e+01 1.0945499968287169e+01 1.3602017955379693e+00 -1 -3 -1
1 1 1 8.0000000000000004e-01 1.6386241077854734e+01 1.2545871815584420e+01 2.7522281180756156e+00 -1 -3 -2
114 21 5 9.1100000000000003e-01 1.3191422827471447e+01 1.3505633970307606e+01 2.1022751835489011e+00 -1 -1 0
109 21 2 -4.6100000000000002e-01 1.4268913213521632e+01 1.3304541385778851e+01 6.0401559946017818e+00 -1 -1 0
106 21 3 -1.3800000000000001e-01 1.1315569466645869e+01 1.2117124474070195e+01 5.2610643884904951e+00 -1 -1 0
252 38 7 -8.1999999999999995e-01 1.4524644267363916e+01 1.5901059874167176e+01 4.9725859408470656e+00 -2 -3 1
253 38 8 4.0999999999999998e-01 1.4597303178622981e+01 1.6683379815123303e+01 5.6292712206905788e+00 -2 -3 1
266 42 8 4.0999999999999998e-01 1.6093067462170833e+01 1.4328811015743874e+01 7.7587922106230494e+00 0 -2 4
242 34 8 4.0999999999999998e-01 1.5687516333555697e+01 1.6380259559502214e+01 1.7193285696672742e+00 -6 0 -2
183 26 5 9.1100000000000003e-01 4.5342328814094328e+00 1.5153088021827722e+01 1.1703576594949570e+01 -1 0 -1
182 26 4 3.1900000000000001e-01 2.7167484463374660e+00 1.5087381506169189e+01 1.2387234628065181e+01 -1 0 -1