variable        infile index data.mol
variable        mytemp index 373

# set up simulation
#read_restart    ${NAME}.restart.*

# the following information is saved to restart files
units           real
atom_style      full
boundary        p p p
pair_style      lj/cut/coul/long 7
kspace_style    pppm 0.0001
pair_modify     tail yes
pair_modify     mix arithmetic
special_bonds   amber

bond_style      harmonic
angle_style     harmonic
dihedral_style  charmm
#improper_style  cvff

read_data       ${infile}
read_data       data.mol
  orthogonal box = (0 0 0) to (16.9073 16.9207 16.9298)
  1 by 2 by 2 MPI processor grid
  reading atoms ...
  341 atoms
  reading velocities ...
  341 velocities
  scanning bonds ...
  4 = max bonds/atom
  scanning angles ...
  6 = max angles/atom
  scanning dihedrals ...
  12 = max dihedrals/atom
  reading bonds ...
  274 bonds
  reading angles ...
  389 angles
  reading dihedrals ...
  420 dihedrals
  4 = max # of 1-2 neighbors
  6 = max # of 1-3 neighbors
  12 = max # of 1-4 neighbors
  14 = max # of special neighbors
  special bonds CPU = 0.000588114 secs
  read_data CPU = 0.0130128 secs

#replicate       3 4 4

neighbor        2.0 bin
neigh_modify    delay 0 every 1 check yes page 1000000 one 20000
timestep        1.0
#velocity        all create ${mytemp} 314159265 mom yes rot yes dist gaussian

## end information that is saved to restart files

## create velocity profile
#minimize       1e-4 1e-6 10000 10000
#velocity        all create  ${mytemp} 314159265 units box
velocity        all zero linear units box
dump            DUMP all custom 1000 ${NAME}.lammpstrj id type x y z mol
dump            DUMP all custom 1000 mol.lammpstrj id type x y z mol
thermo_style    custom step vol temp press ke pe etotal enthalpy evdwl ecoul epair ebond eangle edihed eimp emol elong etail lx ly lz xy xz yz pxy pxz pyz pxx pyy pzz
thermo          1000
#
## thermostat and integrator

#fix             NPT all npt temp ${mytemp} ${mytemp} 100.0 iso 1.0 1.0 100.0
fix             NVT all nvt temp ${mytemp} ${mytemp} 100.0
fix             NVT all nvt temp 373 ${mytemp} 100.0
fix             NVT all nvt temp 373 373 100.0

restart         50000 restart.${NAME}.1 restart.${NAME}.2
restart         50000 restart.mol.1 restart.${NAME}.2
restart         50000 restart.mol.1 restart.mol.2
run             10000000
PPPM initialization ...
  using 12-bit tables for long-range coulomb (src/kspace.cpp:332)
  G vector (1/distance) = 0.371916
  grid = 12 12 12
  stencil order = 5
  estimated absolute RMS force accuracy = 0.0291692
  estimated relative force accuracy = 8.78421e-05
  using double precision KISS FFT
  3d grid and FFT values/proc = 3211 432
Neighbor list info ...
  update every 1 steps, delay 0 steps, check yes
  max neighbors/atom: 20000, page size: 1000000
  master list distance cutoff = 9
  ghost atom cutoff = 9
  binsize = 4.5, bins = 4 4 4
  1 neighbor lists, perpetual/occasional/extra = 1 0 0
  (1) pair lj/cut/coul/long, perpetual
      attributes: half, newton on
      pair build: half/bin/newton
      stencil: half/bin/3d/newton
      bin: standard
Per MPI rank memory allocation (min/avg/max) = 17.94 | 17.94 | 17.94 Mbytes
Step Volume Temp Press KinEng PotEng TotEng Enthalpy E_vdwl E_coul E_pair E_bond E_angle E_dihed E_impro E_mol E_long E_tail Lx Ly Lz Xy Xz Yz Pxy Pxz Pyz Pxx Pyy Pzz 
       0    4843.3339    354.77768    1153.0543    359.55846   -657.84805   -298.28959   -216.84353   -41.380954    4856.6958   -1592.9101    133.00671    180.03939    622.01599            0    935.06209    -6408.225   -45.460554      16.9073      16.9207      16.9298            0            0            0   -846.27723   -2522.6436   -91.679701    -572.9684    2553.4754    1478.6558 
    1000    4843.3339    362.57088   -2496.6029    367.45667   -634.76382   -267.30714   -443.65483   -67.280733    4919.5037    -1558.385    109.13081    197.37847    617.11188            0    923.62116    -6410.608   -45.460554      16.9073      16.9207      16.9298            0            0            0    853.28439   -3302.9888    3529.3846   -3522.5253     703.2749   -4670.5582 
    2000    4843.3339    398.42622    925.39335    403.79518   -622.25317   -218.45799   -153.09278   -57.927862    4902.4199   -1562.9893    125.42684    199.18034     616.1289            0    940.73609   -6407.4813   -45.460554      16.9073      16.9207      16.9298            0            0            0    -919.5634   -1353.6411    1531.8632     75.35805    1604.3669    1096.4551 
    3000    4843.3339    361.73841   -873.90939    366.61298    -639.5568   -272.94382   -334.67245   -59.226843     4907.334   -1560.9381     118.0381    172.28783    631.05542            0    921.38135   -6409.0453   -45.460554      16.9073      16.9207      16.9298            0            0            0    1859.7809   -661.14074   -1459.8664    2170.6452   -2903.7877   -1888.5856 
    4000    4843.3339     363.3658    7640.4187    368.26231   -616.10654   -247.84423    291.83718   -51.837583    4908.4313   -1553.2178    120.88373    192.62036    623.60718            0    937.11127   -6409.8115   -45.460554      16.9073      16.9207      16.9298            0            0            0   -13.082036   -917.17281    2059.4597    2568.1924    6914.6449    13438.419 
    5000    4843.3339    371.29866   -61.105499    376.30206   -659.33362   -283.03156   -287.34775   -59.767784    4912.1041   -1561.2748    105.16276    169.67129    627.10713            0    901.94118   -6413.6111   -45.460554      16.9073      16.9207      16.9298            0            0            0    -3222.685   -8018.1879    699.92594   -2641.8186    833.86294    1624.6392 
    6000    4843.3339    389.10226    1641.2079    394.34557   -636.46126   -242.11569   -126.18888   -63.826573    4906.8147   -1567.3389    125.07223    186.31616    619.48926            0    930.87766    -6410.327   -45.460554      16.9073      16.9207      16.9298            0            0            0   -2489.4248    1971.8208   -1770.7224    -3285.966    1101.5518     7108.038 
    7000    4843.3339    419.27224   -3500.0963    424.92211   -619.81249   -194.89038   -442.11988   -111.70126    4987.5234   -1535.0131    122.34779     174.1503    618.70251            0     915.2006   -6410.8352   -45.460554      16.9073      16.9207      16.9298            0            0            0    1678.0771   -1261.4156    3449.5573   -1706.6488   -5088.3044   -3705.3357 
    8000    4843.3339    372.41623   -3678.4731     377.4347   -611.60055   -234.16585   -493.99501   -71.072901    4924.2027   -1559.0997    136.05661    190.91462    620.52788            0    947.49911   -6412.2294   -45.460554      16.9073      16.9207      16.9298            0            0            0   -818.60868    8783.1166    5683.7299   -2674.7562   -5298.5356   -3062.1275 
    9000    4843.3339    359.70417    5055.9391    364.55134   -610.49426   -245.94293    111.18362   -56.326606    4930.5536   -1535.9454    122.75267    181.95645    620.74203            0    925.45116   -6410.1724   -45.460554      16.9073      16.9207      16.9298            0            0            0   -7591.5364   -3560.3565   -2362.2027    6227.4964    5824.2187    3116.1023 
   10000    4843.3339    376.87144   -1974.0473    381.94994   -610.74559   -228.79564   -368.23259   -83.770227    4933.7266   -1555.8665    124.08276    202.72954    618.30863            0    945.12092   -6405.8229   -45.460554      16.9073      16.9207      16.9298            0            0            0   -2167.0133   -215.34501    1515.3407   -61.878574   -1277.9182    -4582.345 
   11000    4843.3339    368.77025   -3565.9227    373.73958   -658.67662   -284.93704    -536.8162   -44.401535    4878.6384   -1578.0777    126.83688    184.60996    607.95427            0     919.4011   -6412.3146   -45.460554      16.9073      16.9207      16.9298            0            0            0     1507.108   -285.28325    5599.3568   -4094.4298   -7103.6875    500.34918 
   12000    4843.3339    353.93465    1363.8545    358.70406   -665.51991   -306.81584    -210.4799   -69.318756    4922.6632   -1557.3646    113.01442    154.11627    624.71405            0    891.84474   -6410.7091   -45.460554      16.9073      16.9207      16.9298            0            0            0   -410.91617    635.24497    5699.8705   -1795.9992    4581.5143    1306.0484 
   13000    4843.3339    371.15217   -278.49308     376.1536   -614.52081   -238.36721   -258.03858    -73.98212    4930.4703   -1552.5793    130.76911    187.09262     620.1968            0    938.05852   -6409.0675   -45.460554      16.9073      16.9207      16.9298            0            0            0     1808.449    3246.3883   -2790.9857   -3561.6953   -3974.7237    6700.9398 
   14000    4843.3339    383.00078    2321.5664    388.16187   -655.92327   -267.76139   -103.77742   -108.17415    4951.0025   -1569.0861    114.59155      169.541    629.03024            0    913.16279   -6411.9144   -45.460554      16.9073      16.9207      16.9298            0            0            0    845.19096   -4846.2028   -43.927914     117.5617    4072.6022    2774.5354 
   15000    4843.3339    376.64073   -2232.2717    381.71612    -690.8813   -309.16518   -466.84182   -83.964755    4910.3794   -1586.8564    109.70995    168.19516    618.06995            0    895.97506    -6413.271   -45.460554      16.9073      16.9207      16.9298            0            0            0   -292.28499    357.19315   -3964.6902   -2161.1152   -5.6320468   -4530.0679 
   16000    4843.3339    361.40105   -6346.7167    366.27108   -633.76646   -267.49538   -715.79608   -89.510262    4937.6747   -1564.5377    108.24113    196.38512    626.14495            0     930.7712   -6412.7021   -45.460554      16.9073      16.9207      16.9298            0            0            0    2152.6109    1925.1336   -1774.8025    -11893.02   -4060.1179   -3087.0123 
   17000    4843.3339    350.86006   -3881.5605    355.58805   -607.12548   -251.53743   -525.71168   -96.786967    4958.5989   -1543.2163    113.16474    200.72977    622.19628            0    936.09079   -6405.0283   -45.460554      16.9073      16.9207      16.9298            0            0            0    219.68767    -1395.713   -2296.0839   -3837.3447    2780.0366   -10587.374 
   18000    4843.3339    364.12263   -440.81618    369.02933   -640.32913    -271.2998   -302.43688   -53.852288    4890.5034   -1569.6444    111.17825    194.71766    623.41939            0     929.3153   -6406.2956   -45.460554      16.9073      16.9207      16.9298            0            0            0     349.0763   -400.05149    2854.0422   -1485.9229    5814.9849   -5651.5105 
   19000    4843.3339    409.46377    622.24694    414.98147   -621.85115   -206.86968   -162.91723   -72.086164    4915.3431   -1568.5499    122.11528    210.50393    614.07957            0    946.69877   -6411.8069   -45.460554      16.9073      16.9207      16.9298            0            0            0    -1460.905    -568.0102   -1976.8332    3341.2476   -2582.0577     1107.551 
   20000    4843.3339    367.83273    2312.9454    372.78943    -628.6149   -255.82547   -92.450442   -49.792364    4921.5821   -1535.7988    117.06489    173.37743    616.74155            0    907.18386   -6407.5885   -45.460554      16.9073      16.9207      16.9298            0            0            0   -2353.2225    3182.7841    1915.3135   -4762.9671    1113.1706    10588.633 
   21000    4843.3339    389.66041    1523.0518    394.91125   -636.74838   -241.83713   -134.25628   -62.260596    4919.3544   -1553.1978    123.66059     165.2486    627.54027            0    916.44946   -6410.2917   -45.460554      16.9073      16.9207      16.9298            0            0            0    400.25885   -700.72466    1195.6109    2320.7986    3151.7647   -903.40784 
   22000    4843.3339    401.74569   -2738.3005    407.15939   -638.64408   -231.48469    -424.9047   -81.325041    4935.7948   -1550.1446    116.73582     173.2218    621.54286            0    911.50047   -6404.6143   -45.460554      16.9073      16.9207      16.9298            0            0            0    1073.9299    5978.1109   -638.63021    814.93967   -2162.8309   -6867.0101 
   23000    4843.3339    377.76856   -3068.0171    382.85915   -613.60251   -230.74337   -447.45293    -73.17774    4910.7217   -1566.6463    123.74114    199.05085    630.25184            0    953.04383   -6404.1903   -45.460554      16.9073      16.9207      16.9298            0            0            0    -1729.813    851.79781   -323.61791   -3554.6019   -5659.3188    9.8694636 
   24000    4843.3339    376.16887    1646.7307     381.2379   -635.54221    -254.3043   -137.98739   -79.055005    4941.5412   -1545.3106    104.91193    179.49092    625.36555            0    909.76841   -6407.7968   -45.460554      16.9073      16.9207      16.9298            0            0            0    3141.4033    593.50598   -1163.9674    4469.9753   -753.44079    1223.6575 
   25000    4843.3339    385.55439    4795.5867     390.7499   -643.47566   -252.72576    86.010779   -54.585849    4910.9756   -1551.2818    95.830031    181.68979    630.28637            0    907.80618   -6407.6716   -45.460554      16.9073      16.9207      16.9298            0            0            0    2719.7027     2485.929    -411.5863    5018.3225    3062.0347     6306.403 
   26000    4843.3339    384.34552   -3906.7408    389.52474   -594.98185   -205.45711   -481.40997   -103.38698     4988.872   -1527.8005    131.17682    179.94354     621.6983            0    932.81866   -6413.2856   -45.460554      16.9073      16.9207      16.9298            0            0            0   -99.967829    891.52064     76.98127   -7800.1287   -1455.9993   -2464.0945 
   27000    4843.3339    357.16661   -2856.3353    361.97958   -641.23251   -279.25293   -481.01034   -83.742399    4927.7098   -1564.1062    117.47144    179.74719    625.65504            0    922.87368   -6408.0736   -45.460554      16.9073      16.9207      16.9298            0            0            0   -1607.7098    1259.5839   -144.61681   -3398.2882   -3841.0911   -1329.6264 
   28000    4843.3339     403.7591    575.29984    409.19992    -609.4441   -200.24418   -159.60784   -73.044358    4970.6707   -1509.2847    114.26103     168.0059    617.57371            0    899.84064   -6406.9111   -45.460554      16.9073      16.9207      16.9298            0            0            0    558.37224   -5501.1804   -2880.6698    4265.0767    284.61973   -2823.7969 
   29000    4843.3339    379.82175   -714.65677       384.94   -632.25345   -247.31345   -297.79327   -82.668557    4936.7942    -1557.445    120.09264    175.96644    629.13251            0    925.19159   -6411.5707   -45.460554      16.9073      16.9207      16.9298            0            0            0   -486.92107    -1294.055   -266.39263    317.90836   -4248.6025    1786.7238 
   30000    4843.3339     350.6182    2339.8988    355.34293   -615.04258   -259.69965   -94.420763   -62.520714    4941.7168   -1527.8821    115.44232    168.47633    628.92088            0    912.83953   -6407.0782   -45.460554      16.9073      16.9207      16.9298            0            0            0    2132.3998    3433.3883   -902.44993    6412.5285    530.66962    76.498212 
   31000    4843.3339    353.21678    5395.2763    357.97652   -634.71197   -276.73545     104.3602   -20.569356    4913.0416   -1520.1957    103.33571    166.37584    615.77219            0    885.48374    -6412.668   -45.460554      16.9073      16.9207      16.9298            0            0            0   -1904.2059   -3311.0773    144.99317    7702.5507    2389.3637    6093.9145 
   32000    4843.3339    354.24243   -3922.9385      359.016   -578.90192   -219.88592   -496.98291   -68.778139    4957.9597   -1517.2294    134.51009    186.54529    617.27211            0    938.32749    -6406.411   -45.460554      16.9073      16.9207      16.9298            0            0            0   -177.27803    2323.6129     3361.723   -4729.0047   -4647.9778    -2391.833 
   33000    4843.3339    373.86858    3933.0692    378.90661   -645.25744   -266.35083     11.46174    -68.44047    4935.8627   -1545.2776    108.08321    168.21986    623.71707            0    900.02014   -6412.6998   -45.460554      16.9073      16.9207      16.9298            0            0            0   -3369.1434   -265.84583   -490.77946   -1442.4137    6781.7214    6459.8998 
   34000    4843.3339    364.33624    770.25535    369.24582   -617.33225   -248.08643    -193.6794   -76.012471    4967.2891   -1519.2795    117.83566      165.798    618.31355            0    901.94721   -6410.5561   -45.460554      16.9073      16.9207      16.9298            0            0            0    -2736.999   -1918.5966    1281.1861   -38.738601    841.65525    1507.8494 
   35000    4843.3339    365.57544   -3422.1139    370.50172   -608.96229   -238.46057   -480.18178   -102.64141    4982.4197   -1531.6132    102.67878    202.27627    617.69591            0    922.65096   -6411.3916   -45.460554      16.9073      16.9207      16.9298            0            0            0    2664.2577   -288.64898     1621.877   -5015.9702   -5205.7546   -44.617021 
   36000    4843.3339     371.3123   -562.47166    376.31589   -647.30953   -270.99364   -310.72386   -76.773134    4950.7644   -1541.5374     95.33834    179.96554    618.92395            0    894.22784   -6415.5287   -45.460554      16.9073      16.9207      16.9298            0            0            0    4522.6104   -2213.6607    409.09825    1777.2106   -1259.8575   -2204.7681 
   37000    4843.3339    405.55265    3230.5918    411.01764   -621.48623   -210.46859    17.724443   -73.921445    4943.5448   -1540.0232    102.56488    201.01687    614.95523            0    918.53699   -6409.6465   -45.460554      16.9073      16.9207      16.9298            0            0            0   -472.41574   -3318.6814   -1435.0515    2906.9508    5174.9367    1609.8878 
   38000    4843.3339    356.14607   -1618.1636    360.94528   -615.21511   -254.26983   -368.56891   -70.150435    4936.3377   -1545.5418     109.0265    210.87189    610.42825            0    930.32664    -6411.729   -45.460554      16.9073      16.9207      16.9298            0            0            0    2041.2074    2555.4306    735.38594    1998.4658   -3543.7993   -3309.1573 
   39000    4843.3339    359.56282   -5606.9174    364.40808   -610.72569   -246.31762   -642.36255   -82.563151    4915.1351   -1572.6427    137.58572    201.48034    622.85094            0    961.91699   -6405.2146   -45.460554      16.9073      16.9207      16.9298            0            0            0   -278.69562    2725.5738    3270.8804   -4471.0159   -6195.1146   -6154.6218 
   40000    4843.3339    354.72602    3439.4928     359.5061   -631.62247   -272.11637   -29.167596   -63.969028    4928.1919   -1541.2602    123.54365    170.39517    615.69895            0    909.63777   -6405.4831   -45.460554      16.9073      16.9207      16.9298            0            0            0    3237.5851    1636.4152    1799.7078    1724.8921     6530.402    2063.1843 
   41000    4843.3339    395.57675    2282.7765    400.90732    -629.3467   -228.43938   -67.195335   -67.838427    4954.7112    -1522.337    105.75539    172.45123    614.78373            0    892.99034   -6409.2098   -45.460554      16.9073      16.9207      16.9298            0            0            0   -749.92121    1050.6785   -197.01872    3336.6543    3692.7341   -181.05899 
   42000    4843.3339    370.05099     729.3633    375.03758   -624.84792   -249.81034   -198.29172   -63.541003    4926.0552    -1544.875    113.81972     186.5267    619.68069            0    920.02711   -6407.3893   -45.460554      16.9073      16.9207      16.9298            0            0            0     704.1942   -3687.5211    6461.3674   -1120.0082    -1332.018    4640.1161 
   43000    4843.3339    400.42716    2139.8306    405.82308   -635.06053   -229.23745   -78.090392   -30.674917    4908.7601    -1534.057    100.28653    175.17785     623.5321            0    898.99649   -6412.1422   -45.460554      16.9073      16.9207      16.9298            0            0            0    2588.9039    6797.0424   -1502.2072    2150.8444     5375.913   -1107.2655 
   44000    4843.3339    394.13503    1943.6183    399.44616   -621.32239   -221.87622   -84.588632   -66.704544    4955.1343   -1523.4036     108.6687    177.53324    615.87924            0    902.08119   -6411.8333   -45.460554      16.9073      16.9207      16.9298            0            0            0   -2822.7608    2462.5167   -955.25153    1930.7322    3164.8232    735.29952 
   45000    4843.3339    362.36025    339.60468     367.2432   -617.22113   -249.97793   -225.98993   -50.520059    4899.7209   -1562.3565     135.0529    177.93312     632.1494            0    945.13542   -6411.5574   -45.460554      16.9073      16.9207      16.9298            0            0            0   -3710.5663    3098.2795    121.24105    760.78075    459.95764   -201.92436 
   46000    4843.3339    388.69659    5429.6073    393.93444   -601.68162   -207.74718    175.77344   -52.005799    4924.1873   -1535.4045    122.95331     191.5432    619.22633            0    933.72284    -6407.586   -45.460554      16.9073      16.9207      16.9298            0            0            0    1805.5149    4796.9896   -5262.4694    5910.4162    3642.5784    6735.8272 
   47000    4843.3339     386.4104   -3925.8918    391.61744    -645.0373   -253.41986   -530.72545   -73.728658    4936.7419   -1544.0948    126.73264    157.94591    614.37897            0    899.05752    -6407.108   -45.460554      16.9073      16.9207      16.9298            0            0            0    481.35497   -288.05001    3852.1377    -5923.555   -4176.2194   -1677.9009 
   48000    4843.3339    382.46536    2178.3474    387.61924   -649.70549   -262.08625   -108.21856   -70.843004    4910.0487   -1569.7212    107.36977    193.56683    619.07911            0    920.01571   -6408.9269   -45.460554      16.9073      16.9207      16.9298            0            0            0    2860.3481   -1073.8637   -562.60245    1613.3515    3724.9959    1196.6948 
   49000    4843.3339    382.19815    1389.0385    387.34843   -644.27247   -256.92404   -158.80922   -73.913043    4926.2577   -1553.9226    107.31334     184.8725    617.46431            0    909.65015   -6406.2673   -45.460554      16.9073      16.9207      16.9298            0            0            0    2911.4486   -838.32983     603.8623   -90.806758    4114.3973    143.52514 
   50000    4843.3339    367.58817    599.59794    372.54157   -634.16199   -261.62042   -219.26778   -62.559026    4911.2166   -1562.3232    111.33133    178.55712    638.27276            0    928.16121   -6410.9808   -45.460554      16.9073      16.9207      16.9298            0            0            0    1280.8243   -2534.2133     124.6301    1032.3174    1675.8629   -909.38645 
   51000    4843.3339    370.40956   -2723.6334    375.40099    -608.8472   -233.44621   -425.83021   -67.783505    4930.6695   -1547.2561     126.9703    198.12047    613.31809            0    938.40886   -6410.1421   -45.460554      16.9073      16.9207      16.9298            0            0            0    307.73852     2146.958    369.30612    480.44613   -6719.1698   -1932.1766 
   52000    4843.3339    388.38138    1345.8328    393.61498   -620.89338    -227.2784   -132.21542   -73.572235    4953.2855   -1528.1077    120.67692    161.65338    624.88397            0    907.21427   -6407.8209   -45.460554      16.9073      16.9207      16.9298            0            0            0   -2571.7066   -131.79875    1410.9227    3867.2646    -489.5088     659.7426 
   53000    4843.3339    365.79331   -2024.7832    370.72253    -624.1031   -253.38056   -396.40124   -61.028946    4912.1562   -1556.2108     120.8731    188.80756    622.42707            0    932.10773    -6407.338   -45.460554      16.9073      16.9207      16.9298            0            0            0   -1327.3388     965.8559   -2866.8011   -1844.4758    617.59333   -4847.4673 
   54000    4843.3339    400.49932    362.81134    405.89622   -596.35486   -190.45864   -164.83144   -67.513221    4942.6352   -1534.4735    138.12608    173.27026    626.72232            0    938.11866   -6409.5955   -45.460554      16.9073      16.9207      16.9298            0            0            0   -369.09528    4040.7149    3348.5444    3972.7302   -4076.5467    1192.2505 
   55000    4843.3339    383.63594   -1052.2908    388.80559   -644.85635   -256.05075   -330.37938   -75.491782     4956.237   -1528.6725    102.46997    168.35129    612.99488            0    883.81614   -6409.4177   -45.460554      16.9073      16.9207      16.9298            0            0            0   -1409.3515   -245.35808   -798.24583   -1778.6051    2507.0769   -3885.3442 
   56000    4843.3339    403.19643    1300.7159    408.62967   -653.23881   -244.60914     -152.733   -78.097031    4941.1906   -1551.0054    105.06042    182.78231    609.92387            0    897.76661    -6414.099   -45.460554      16.9073      16.9207      16.9298            0            0            0    2754.1606    2521.6945   -1282.3479    2125.8259    1785.0741   -8.7522003 
   57000    4843.3339    367.88233   -5295.2147    372.83969   -593.41722   -220.57752   -594.60531   -84.511486    4957.1423   -1538.8343    131.90529    193.41798    620.09377            0    945.41705   -6411.4651   -45.460554      16.9073      16.9207      16.9298            0            0            0    615.05441    723.64446   -476.87777   -5243.0799   -1697.3586   -8945.2055 
   58000    4843.3339     376.5212    4939.9684    381.59498   -649.25489   -267.65991    81.275038   -56.236024    4914.7343    -1554.909    110.24788    180.15642    615.24984            0    905.65415   -6413.4073   -45.460554      16.9073      16.9207      16.9298            0            0            0   -5159.5935   -1773.6261    736.57794    3817.7955    11247.767   -245.65747 
   59000    4843.3339    367.51625   -1492.6045    372.46868   -628.51635   -256.04767   -361.47787   -60.764395    4923.9229   -1543.8666    126.63703    169.72886     618.9844            0    915.35029   -6407.0252   -45.460554      16.9073      16.9207      16.9298            0            0            0   -199.56185   -3694.3745    2710.3867   -4172.2628   -365.01195    59.461195 
   60000    4843.3339    368.15182   -2050.5358    373.11282   -653.99862    -280.8858   -425.72551   -67.243267    4915.4704   -1560.3268    102.03053    177.06666    627.23096            0    906.32814   -6408.5539   -45.460554      16.9073      16.9207      16.9298            0            0            0    174.31923    1612.1897    2528.8658   -3466.3047   -4435.9743    1750.6716 
   61000    4843.3339    386.03395   -1591.4766    391.23592   -634.04145   -242.80552   -355.21957   -78.173155    4920.7418   -1564.7827    125.99124    178.06267    626.68733            0    930.74124   -6407.3513   -45.460554      16.9073      16.9207      16.9298            0            0            0   -74.476964    666.60426    251.60842   -1838.3337   -1814.0978   -1121.9983 
   62000    4843.3339    387.28687    3581.0988    392.50572   -653.16279   -260.65706    -7.705942    -49.43618    4904.1183   -1554.2172    95.367438    190.80252     614.8845            0    901.05446   -6408.8993   -45.460554      16.9073      16.9207      16.9298            0            0            0    3432.4334   -545.49082   -1259.9344    2512.1137     3742.833    4488.3498 
   63000    4843.3339    399.80164   -1008.1601    405.18913   -625.63851   -220.44938   -291.66082   -71.399592    4918.9712   -1559.8131    128.72359    181.01378    624.43717            0    934.17454   -6407.3847   -45.460554      16.9073      16.9207      16.9298            0            0            0    770.15747    2484.6256   -859.49586   -2948.7055     2601.978   -2677.7529 
   64000    4843.3339    348.86925    726.82519    353.57041   -606.61266   -253.04225   -201.70291   -60.297769    4947.7321   -1525.0484     123.1973    177.70017    617.53831            0    918.43578   -6412.4827   -45.460554      16.9073      16.9207      16.9298            0            0            0    2845.2308    2071.2485    1958.7581    4603.8481   -100.79588   -2322.5767 
   65000    4843.3339    379.54763   -4445.3914    384.66219     -642.724    -258.0618   -572.06228   -86.898899    4940.0681   -1560.0186    114.18436    188.20735    614.90288            0    917.29459   -6413.1878   -45.460554      16.9073      16.9207      16.9298            0            0            0   -1578.6397    256.73301      238.479   -1455.6219   -4027.5742   -7852.9781 
   66000    4843.3339    396.14918    3361.6494    401.48746   -629.46292   -227.97546    9.4748393   -87.145452    4944.2167   -1551.4471    120.83457    173.89355    627.25608            0     921.9842   -6408.5183   -45.460554      16.9073      16.9207      16.9298            0            0            0   -3620.1438    837.17106   -164.58146    4964.2732    1851.7976    3268.8775 
   67000    4843.3339    385.38791    2968.2994    390.58117   -649.45098   -258.86981   -49.203813   -50.420863    4895.1422   -1566.0845    114.52945    180.66087    621.44319            0    916.63352   -6410.8058   -45.460554      16.9073      16.9207      16.9298            0            0            0   -1563.1105    1084.0214    1168.2499    5621.1895    1599.3661    1684.3425 
   68000    4843.3339    379.58378   -2215.4964    384.69883   -642.92712   -258.22828      -414.72   -112.66816    4939.9112   -1581.3918    120.01395    203.43609    615.01468            0    938.46472   -6408.6348   -45.460554      16.9073      16.9207      16.9298            0            0            0   -2112.8785    1412.3508     2746.467   -1745.7345   -3733.2237    -1167.531 
   69000    4843.3339    380.51894    1260.3146    385.64659   -649.78053   -264.13394   -175.11155   -80.541348    4930.6436   -1560.6395    98.090622     188.4698    624.29857            0    910.85899   -6410.7418   -45.460554      16.9073      16.9207      16.9298            0            0            0    -1690.013    916.54657   -2372.7269    1558.4376    798.47881    1424.0272 
   70000    4843.3339    375.45109   -2398.7688    380.51045   -635.01356   -254.50311   -423.94028   -65.733006    4902.4338   -1576.2767    118.66036    203.08662    619.51613            0    941.26312   -6412.9774   -45.460554      16.9073      16.9207      16.9298            0            0            0   -2351.7674    2692.0907   -1975.1808    -4109.757   -2142.0169    -944.5325 
   71000    4843.3339     374.2533    1856.2339    379.29652   -643.23738   -263.94086   -132.82567    -79.07864     4926.386   -1560.6291    107.95134    192.32048    617.11993            0    917.39175   -6407.9365   -45.460554      16.9073      16.9207      16.9298            0            0            0    899.87812    341.35955    753.87349    5984.1374    920.68276   -1336.1183 
   72000    4843.3339    365.31908   -1087.1784    370.24191   -631.60411   -261.36221   -338.15512   -55.603046    4910.3865   -1556.7211    118.78415    188.21599     618.1168            0    925.11694   -6411.5045   -45.460554      16.9073      16.9207      16.9298            0            0            0   -1577.9727   -640.14562   -1188.4264     1453.271   -7325.0296    2610.2233 
   73000    4843.3339    365.94224    1604.1524    370.87346   -650.51953   -279.64607   -166.33667   -65.698162    4900.9938   -1571.2922    117.90009    177.36339    625.50916            0    920.77263   -6406.5878   -45.460554      16.9073      16.9207      16.9298            0            0            0   -1613.9524    69.017499     4403.246    3844.4163    1618.2204   -650.17958 
   74000    4843.3339    385.36274   -2034.1761    390.55566   -659.89103   -269.33536   -413.01951   -64.814982    4896.4451   -1577.8337    115.16135    186.08234    616.69903            0    917.94272   -6409.4639   -45.460554      16.9073      16.9207      16.9298            0            0            0   -3327.9758    745.44988   -264.53607   -4646.9939   -3428.7028    1973.1684 
   75000    4843.3339    360.95838   -1969.7839    365.82245   -614.52377   -248.70133   -387.83712   -77.534658    4901.6603   -1586.6647    132.63986    215.77175    623.72931            0    972.14092   -6410.7903   -45.460554      16.9073      16.9207      16.9298            0            0            0   -4877.0189    1032.7645   -2134.3479    3090.4187    -5253.166   -3746.6043 
   76000    4843.3339    365.58856   -5028.8907    370.51502   -635.76121   -265.24619   -620.46217   -75.717985     4891.054   -1591.5242    124.36939    209.09219     622.3014            0    955.76298   -6406.8603   -45.460554      16.9073      16.9207      16.9298            0            0            0   -1133.7028   -15.512853    1510.3841   -4802.0988   -6742.2224   -3542.3507 
   77000    4843.3339    396.82502    1200.1683     402.1724   -659.08494   -256.91255   -172.13859   -84.479158    4936.4606   -1555.8491    106.59958    171.04988    619.11469            0    896.76416   -6407.8306   -45.460554      16.9073      16.9207      16.9298            0            0            0    1207.1253    2620.1138    902.37206     5591.804    1302.8137   -3294.1127 
   78000    4843.3339    373.33286    3774.7951    378.36367   -617.06189   -238.69821    27.934653   -64.621288    4954.9236   -1515.0978    96.291044    180.07183    621.67303            0    898.03591   -6405.4001   -45.460554      16.9073      16.9207      16.9298            0            0            0    2632.9596    849.71145    1129.8648    4394.4715     9721.242   -2791.3283 
   79000    4843.3339    369.66179    1550.7959    374.64314   -573.92993   -199.28679   -89.746235   -60.902311    4925.4846   -1535.7074    130.75218    212.17139     618.8539            0    961.77746   -6400.2897   -45.460554      16.9073      16.9207      16.9298            0            0            0    3912.8162   -1217.0168   -1969.6611    5443.9005    2054.3803    -2845.893 
   80000    4843.3339     345.2601   -1830.2286    349.91263   -620.85452   -270.94189   -400.22019   -61.776375    4922.3277   -1548.1079    114.06305    189.03535      624.155            0    927.25339   -6408.6592   -45.460554      16.9073      16.9207      16.9298            0            0            0    1868.5852     3267.628    3010.7331   -2289.0375   -3840.1474    638.49899 
   81000    4843.3339    356.98091   -1789.8777    361.79137   -614.09854   -252.30717   -378.73528   -68.401479    4938.1633   -1540.9322    124.36274    174.02977    628.44113            0    926.83364    -6410.694   -45.460554      16.9073      16.9207      16.9298            0            0            0    227.57764   -3445.9131    -449.7251   -401.47249   -1185.5023   -3782.6583 
   82000    4843.3339    378.98864   -1254.6518    384.09567   -617.94029   -233.84462   -322.46702   -70.310355    4941.2802   -1541.9069    105.59217    194.92218     623.4523            0    923.96666   -6412.8768   -45.460554      16.9073      16.9207      16.9298            0            0            0     3940.255   -5334.7205    403.29393   -5067.5185    1133.9505    169.61276 
   83000    4843.3339    353.39564    1144.7927    358.15779   -659.97733   -301.81954   -220.95704   -76.612911    4882.3751   -1606.2311    113.65128    212.55493    620.04755            0    946.25376   -6411.9933   -45.460554      16.9073      16.9207      16.9298            0            0            0    -2474.954    188.31416   -4805.9848   -847.80642    459.12686    3823.0576 
   84000    4843.3339    384.63835    1531.8104    389.82151   -636.09398   -246.27247   -138.07295   -50.045021    4915.7415   -1546.0251    110.99564    177.27323    621.66227            0    909.93113   -6411.7216   -45.460554      16.9073      16.9207      16.9298            0            0            0   -3281.7307   -1430.8682   -992.48966   -1306.8011    1278.2564     4623.976 
   85000    4843.3339     388.1341     959.7243    393.36437   -637.21809   -243.85372   -176.06354   -59.305088     4932.103   -1540.3813    115.80318    174.90217    612.45781            0    903.16316   -6413.1792   -45.460554      16.9073      16.9207      16.9298            0            0            0    5382.6676    197.97322    369.56038    2081.9111    3366.7318     -2569.47 
   86000    4843.3339    390.86081   -1329.4045    396.12783   -684.95462   -288.82679   -382.72936   -74.713724    4897.0641   -1586.9371    110.53972    174.32503    617.11769            0    901.98245   -6409.2874   -45.460554      16.9073      16.9207      16.9298            0            0            0    889.83838   -2108.8334   -4126.5157   -3046.1023     327.0037   -1269.1151 
   87000    4843.3339    368.82021   -973.56943    373.79022   -624.20131   -250.41109   -319.17922    -80.02872    4924.9435   -1563.2882    133.90621    181.15736    624.02336            0    939.08693    -6408.203   -45.460554      16.9073      16.9207      16.9298            0            0            0   -955.53851    492.75004    5695.3402   -1740.5191    887.73336   -2067.9225 
   88000    4843.3339     405.9314    862.22043    411.40149   -628.21249     -216.811   -155.90801   -81.674426    4929.2511   -1555.9693    113.34253    193.07082    621.34346            0    927.75681    -6403.546   -45.460554      16.9073      16.9207      16.9298            0            0            0    1271.3439    2565.0251    1861.1599    1517.8697    531.48353    537.30806 
   89000    4843.3339    367.11195   -850.37755    372.05894   -640.70091   -268.64197   -328.70844   -67.713803    4939.9175   -1543.3567     117.9273    172.99773     611.7308            0    902.65583   -6415.5605   -45.460554      16.9073      16.9207      16.9298            0            0            0   -1509.0475    356.53254    1671.3375   -797.63339    592.28635   -2345.7856 
   90000    4843.3339    386.59277    6361.1023    391.80227   -634.05248   -242.25021    207.06661    -57.43117    4936.6254   -1531.8912    105.67639     171.2596    620.90269            0    897.83868   -6411.0854   -45.460554      16.9073      16.9207      16.9298            0            0            0   -2268.9827   -7.9734629    486.82844    5647.8213    10548.796    2886.6894 
   91000    4843.3339     373.9977    1304.2271    379.03748   -623.14154   -244.10407   -151.97991   -66.033651    4944.8184   -1528.2871    109.46786    172.81105     622.8666            0    905.14551   -6407.0718   -45.460554      16.9073      16.9207      16.9298            0            0            0   -4542.3786   -1061.4433   -3778.1339     3560.694   -4997.3315    5349.3187 
   92000    4843.3339     376.5761    1154.8512    381.65062   -653.38805   -271.73743   -190.16445   -78.234962    4927.4362   -1562.8092    110.01531    191.52926    607.87656            0    909.42112   -6412.0104   -45.460554      16.9073      16.9207      16.9298            0            0            0   -797.84945    1094.9075    241.30507    432.66798    1655.4299    1376.4556 
   93000    4843.3339    370.52616   -3703.7697    375.51916   -627.69589   -252.17674   -513.79272   -58.628259     4908.962   -1554.8212    116.80272    182.52754    627.79507            0    927.12533    -6405.155   -45.460554      16.9073      16.9207      16.9298            0            0            0   -1199.6142    247.84483    240.33162   -3947.6847   -820.20267   -6343.4217 
   94000    4843.3339    377.35336    608.69813    382.43836   -620.95057   -238.51221   -195.51678   -73.075051    4942.0594   -1535.5254    125.33089    175.23831    614.00568            0    914.57487   -6404.5098   -45.460554      16.9073      16.9207      16.9298            0            0            0    3324.9438    3083.9635    2986.5767    3439.7964   -2379.3051    765.60308 
   95000    4843.3339    356.80676   -1230.9023    361.61488   -631.20238    -269.5875   -356.53235   -57.141802     4930.563   -1532.4401    111.51843    168.93049    620.78884            0    901.23776   -6405.8614   -45.460554      16.9073      16.9207      16.9298            0            0            0   -1267.2327   -95.112288    -2525.727   -1128.5974   -2104.2525   -459.85702 
   96000    4843.3339    367.93806   -2051.1385    372.89618    -614.6859   -241.78972     -386.672   -59.349108    4917.9991   -1553.5649    129.46064    187.15745    622.26093            0    938.87902   -6412.2149   -45.460554      16.9073      16.9207      16.9298            0            0            0   -1944.4275    2145.2525   -1179.5026   -2002.3761   -2981.1775   -1169.8619 
   97000    4843.3339    342.88744   -1590.5145    347.50799   -635.68112   -288.17312   -400.51921   -77.821969    4935.2678   -1551.3389    107.85676    184.66075    623.14027            0    915.65778   -6408.7847   -45.460554      16.9073      16.9207      16.9298            0            0            0    1002.8042   -4150.8231    776.14264   -517.45779    -217.6316   -4036.4541 
   98000    4843.3339    345.97342    790.57367    350.63556   -605.88489   -255.24934   -199.40712   -65.135361    4925.7835   -1542.7631    121.61772    198.70044    616.55999            0    936.87816   -6403.4112   -45.460554      16.9073      16.9207      16.9298            0            0            0   -94.308038   -2919.6936   -31.755271   -1273.5546    5819.7868   -2174.5113 
   99000    4843.3339    335.37402   -3222.4345    339.89332   -634.61491   -294.72158   -522.33843   -77.978583    4958.9058   -1527.7337    128.37767    148.50611    616.23505            0    893.11884   -6408.6609   -45.460554      16.9073      16.9207      16.9298            0            0            0   -2507.1824   -2110.8541   -1952.7593    -473.5861   -3420.5796    -5773.138 
  100000    4843.3339    351.78643    2158.3916    356.52689   -595.48004   -238.95314   -86.495027   -76.267646    4968.3242   -1521.1642    114.63665    183.04192    628.00564            0    925.68421   -6413.2208   -45.460554      16.9073      16.9207      16.9298            0            0            0    188.39163   -1056.9195    3785.3859    1157.5817    3433.4305    1884.1626 
  101000    4843.3339    363.33693   -409.36563    368.23304   -594.52185   -226.28881   -255.20437   -56.356217    4945.2154   -1517.8625    105.79549    192.58013    624.96503            0    923.34065   -6406.7217   -45.460554      16.9073      16.9207      16.9298            0            0            0    1647.3275   -3056.3342    226.54913   -2406.2657    806.55707     371.6117 
  102000    4843.3339     356.8586   -3675.6898    361.66742   -615.09124   -253.42382   -513.05638   -97.734662    4965.3302   -1539.5112    109.73299    174.08236    640.60459            0    924.41994   -6407.1067   -45.460554      16.9073      16.9207      16.9298            0            0            0    2264.1469    2726.9628    6135.5302   -1246.1727   -11579.139    1798.2426 
  103000    4843.3339    404.86487    3801.8601     410.3206    -619.7158    -209.3952    59.149407   -64.723247    4913.2196   -1562.5363    117.18744    194.67416    630.95895            0    942.82055   -6411.0327   -45.460554      16.9073      16.9207      16.9298            0            0            0   -587.45754   -3528.7566   -2373.2776    6397.8954    193.43226    4814.2527 
  104000    4843.3339    352.70261     4060.491    357.45543   -645.10848   -287.65305  -0.84003585   -79.630511    4956.7016   -1535.2882    97.146862    167.61626    625.41664            0    890.17977   -6412.3593   -45.460554      16.9073      16.9207      16.9298            0            0            0    2960.0509   -201.95774    1081.4808    4180.4841    6166.7193    1834.2696 
  105000    4843.3339    368.24442    466.49646    373.20667   -622.99718   -249.79051   -216.83951   -56.867017    4916.5879   -1546.0929    113.06964    178.11235    631.91376            0    923.09575   -6405.8138   -45.460554      16.9073      16.9207      16.9298            0            0            0   -1345.9853   -3456.0737   -2551.3983    2810.7901   -184.78854   -1226.5122 
  106000    4843.3339    356.72076   -319.09783    361.52772   -636.62803    -275.1003    -297.6398   -81.341802    4949.3973   -1539.3202    110.99592    164.42783    627.26846            0     902.6922   -6407.3757   -45.460554      16.9073      16.9207      16.9298            0            0            0   -2722.3592   -2857.4295    919.57508    -2004.362   -722.78719    1769.8557 
  107000    4843.3339    376.84841   -1715.2883     381.9266   -610.55718   -228.63058   -349.79007    -77.55498    4943.3876   -1544.3685    111.06601    189.82954    632.91578            0    933.81133   -6410.2012   -45.460554      16.9073      16.9207      16.9298            0            0            0    4330.3612    1090.7609    5496.5217   -1488.2633   -1626.1206   -2031.4811 
  108000    4843.3339    348.34522    1979.6724    353.03932   -644.80789   -291.76857   -151.93429   -72.695444    4957.7582   -1522.2985      103.551    157.53215    616.40746            0    877.49061   -6407.3613   -45.460554      16.9073      16.9207      16.9298            0            0            0   -363.60943    2264.5818    638.59386    4985.0808   -3168.3178    4122.2544 
  109000    4843.3339    370.75883    695.96673    375.75496   -618.65402   -242.89906   -193.73941   -75.348577    4937.0838   -1547.1131    115.38971    192.97995    620.08941            0    928.45907   -6408.8484   -45.460554      16.9073      16.9207      16.9298            0            0            0   -5626.4048   -517.38051   -1410.1566    3578.6699    1647.0671   -3137.8368 
  110000    4843.3339    368.10276    3522.6599     373.0631   -660.85049   -287.78739   -38.964105   -33.723703    4875.2166   -1568.0962     105.3231    194.15599    607.76665            0    907.24573   -6409.5891   -45.460554      16.9073      16.9207      16.9298            0            0            0   -1667.6009   -1516.0663   -478.01578    3774.1921    2664.8978    4128.8898 
  111000    4843.3339    381.41609    3870.2745    386.55583   -599.92779   -213.37196    60.005104   -38.412085    4909.9427   -1538.4978    114.30339    197.71757    626.54902            0    938.56998   -6410.0284   -45.460554      16.9073      16.9207      16.9298            0            0            0    -2193.936    -1143.331   -428.13281    6799.9074    968.23831    3842.6778 
  112000    4843.3339    397.03204   -3832.1366    402.38221   -636.33763   -233.95542    -504.6386   -84.735396    4941.6652   -1545.3838    120.44037    173.59434    615.01146            0    909.04617   -6402.3136   -45.460554      16.9073      16.9207      16.9298            0            0            0   -1900.1632    1319.6437    3275.8097    -2866.217   -4548.2602   -4081.9325 
  113000    4843.3339    338.95768   -1009.3174    343.52527   -615.72986   -272.20458   -343.49777    -81.01601    4953.5552    -1533.331    122.78481    185.32614     609.4902            0    917.60115   -6405.8702   -45.460554      16.9073      16.9207      16.9298            0            0            0   -1184.2245   -851.92899    265.28259   -2347.3581    4639.5341   -5320.1281 
  114000    4843.3339    384.85071    4196.9225    390.03673   -639.35037   -249.31364    47.136219   -62.848426    4913.0732   -1560.3368    116.91406    186.46173     617.6106            0    920.98638   -6410.5615   -45.460554      16.9073      16.9207      16.9298            0            0            0   -2334.7832   -1694.2465   -2838.9532    2041.5088    9125.6536    1423.6052 
  115000    4843.3339    374.22647   -3294.8334    379.26933   -640.08903    -260.8197   -493.55044   -56.318617    4858.8021   -1605.3117    127.39628    214.99131     622.8351            0    965.22269   -6407.7952   -45.460554      16.9073      16.9207      16.9298            0            0            0    645.00022    5189.2429    1943.5072   -4984.2405   -3838.0847   -1062.1749 
  116000    4843.3339    367.01707   -4259.6415    371.96278   -623.64766   -251.68488    -552.5649   -87.593564    4929.6534   -1563.6169     135.2376    187.01253    617.71908            0     939.9692   -6405.6767   -45.460554      16.9073      16.9207      16.9298            0            0            0     215.2577   -504.62053    771.48355   -1282.2102   -7925.2449   -3571.4693 
  117000    4843.3339    378.00163    2744.2937    383.09536   -623.69297   -240.59761   -46.754267   -77.201508    4932.6974    -1557.135    106.55251     207.1102    619.77935            0    933.44207   -6412.6309   -45.460554      16.9073      16.9207      16.9298            0            0            0   -1456.2787    848.29709    142.99756    1692.3596    4992.4165    1548.1051 
  118000    4843.3339    372.89447    1134.9276    377.91938   -620.10369   -242.18431   -162.01864   -82.873206    4905.8507   -1582.8802      111.995    228.04645    622.73507            0    962.77652   -6405.8577   -45.460554      16.9073      16.9207      16.9298            0            0            0    2130.9854   -446.52973    3243.4284   -1532.9489   -405.65133    5343.3829 
  119000    4843.3339    373.30421   -1329.6245    378.33464   -625.72822   -247.39358   -341.31169   -62.785771    4920.6268   -1549.1037    116.94168     193.6349    612.79888            0    923.37547   -6406.9447   -45.460554      16.9073      16.9207      16.9298            0            0            0   -3245.1034    3445.2047   -2257.7691   -514.21656   -5362.0125    1887.3556 
  120000    4843.3339    344.54604   -170.41235    349.18894   -629.83276   -280.64382   -292.68091   -72.519016    4922.5318   -1556.4139    114.64377    186.12807    625.80934            0    926.58117   -6406.4268   -45.460554      16.9073      16.9207      16.9298            0            0            0    2107.5571    96.135577   -2193.3862   -1022.0451    -196.0742    706.88225 
  121000    4843.3339    350.20463   -167.63039    354.92378   -645.85995   -290.93617   -302.77675    -69.29605     4913.352   -1565.5684    122.34122    179.33725    618.02999            0    919.70846   -6409.6244   -45.460554      16.9073      16.9207      16.9298            0            0            0    2660.1898    2784.8659    949.70701    1549.9376    898.49196   -2951.3207 
  122000    4843.3339    366.00885    712.15937    370.94098   -615.20805   -244.26708   -193.96366    -34.63302    4882.5623   -1561.7068    123.68939    204.38044    618.42889            0    946.49872    -6409.636   -45.460554      16.9073      16.9207      16.9298            0            0            0   -2205.4681    -2602.822   -2034.9585    3022.7291   -3016.8882    2130.6372 
  123000    4843.3339    384.74156    -2950.676    389.92611   -602.31655   -212.39044   -420.81161   -77.349042    4951.0458   -1535.4377    129.98134    177.34799    625.79178            0    933.12111   -6409.1344   -45.460554      16.9073      16.9207      16.9298            0            0            0   -1024.4759    1607.8803    208.92386    -3441.001   -1106.1697   -4304.8572 
  124000    4843.3339    367.96075    1597.1972    372.91918   -638.23775   -265.31857   -152.50046   -42.584055     4916.968   -1530.6863     110.3993    171.16114     610.8881            0    892.44853   -6405.0702   -45.460554      16.9073      16.9207      16.9298            0            0            0     4882.106    4777.5644   -141.84408    4336.8419    473.28396   -18.534382 
  125000    4843.3339    357.13944    145.52532    361.95205   -642.89653   -280.94448   -270.66529   -85.338221    4923.8309   -1568.2527    104.65604    196.46456    624.23559            0    925.35618   -6406.7454   -45.460554      16.9073      16.9207      16.9298            0            0            0    2260.0351   -1367.8406   -9.9851688   -522.64281   -1957.3638    2916.5826 
  126000    4843.3339      359.214   -1998.1256    364.05455   -623.88713   -259.83258   -400.97029   -72.656094    4953.7858   -1530.4122    117.62379    174.66196    614.23929            0    906.52504   -6411.5418   -45.460554      16.9073      16.9207      16.9298            0            0            0   -2201.0663   -985.06572    1485.4102   -2183.9489   -3189.8377   -620.59006 
  127000    4843.3339     376.5698    -359.2119    381.64423   -638.21789   -256.57366   -281.94661   -58.613324    4885.6163   -1585.8644    127.72444    191.37948    628.54259            0    947.64651   -6412.8674   -45.460554      16.9073      16.9207      16.9298            0            0            0    2550.2894    3918.7499   -309.20695    2216.6334   -188.14845   -3106.1206 
  128000    4843.3339    368.41427    829.09751    373.37881   -611.09579   -237.71698   -179.15363   -52.804003    4922.1156   -1537.5889     116.6175    181.46296    628.41268            0    926.49314   -6406.9006   -45.460554      16.9073      16.9207      16.9298            0            0            0   -1110.2159      3034.38    470.85365   -544.85637    451.00023    2581.1487 
  129000    4843.3339    386.31412    2459.3856    391.51987    -629.9375   -238.41763   -64.698786   -44.560957     4918.394   -1534.6575    110.35802    179.82234    614.53968            0    904.72004   -6408.4905   -45.460554      16.9073      16.9207      16.9298            0            0            0    1445.2398    6390.1922   -1376.5232    3062.4463    2683.1938    1632.5168 
  130000    4843.3339     372.9021    2638.7939    377.92711    -594.6504    -216.7233   -30.331941   -65.210875    4944.5773   -1529.8126    115.17477    204.12506    615.86238            0     935.1622    -6409.179   -45.460554      16.9073      16.9207      16.9298            0            0            0   -835.70498    4282.4619    1960.8205    2299.0323    7902.2204    -2284.871 
  131000    4843.3339    394.78525   -5848.0969    400.10514   -628.34978   -228.24463   -641.32529   -96.109273    4951.2614   -1550.5923    107.16622    194.85641    620.21993            0    922.24257   -6405.7445   -45.460554      16.9073      16.9207      16.9298            0            0            0   -1267.9865    1990.6209   -1251.4367   -6200.0436   -8592.3691    -2751.878 
  132000    4843.3339    380.36616    2842.2039    385.49175   -610.42633   -224.93458   -24.175339    -81.45981    4946.2137   -1542.7629    120.88901    185.57167    625.87593            0    932.33661   -6407.5169   -45.460554      16.9073      16.9207      16.9298            0            0            0  -0.25301031    5814.7509    1620.3817    6753.6371     1669.874    103.10079 
  133000    4843.3339     383.0251   -1301.9872    388.18653   -636.20958   -248.02306   -339.98899   -85.862178    4966.8827   -1523.2031    108.30863    157.38568    621.29917            0    886.99348   -6404.2236   -45.460554      16.9073      16.9207      16.9298            0            0            0   -188.02764   -1886.1527    -999.3583    4284.7874    -5282.058   -2908.6909 
  134000    4843.3339    368.72133     536.8345       373.69   -615.74271    -242.0527   -204.13337    -73.48269    4931.8759    -1552.227    113.18166    207.69784    615.60481            0    936.48432   -6410.6203   -45.460554      16.9073      16.9207      16.9298            0            0            0    1326.7779   -1588.8667   -1010.5974    971.55834    1285.3212   -646.37608 
  135000    4843.3339    372.12866   -2914.9517    377.14325   -615.10698   -237.96373   -443.86151   -84.184123    4937.2976   -1558.0106    128.11779    193.56953    621.21627            0    942.90359    -6411.124   -45.460554      16.9073      16.9207      16.9298            0            0            0    1298.7253   -3047.2577    224.60475    2815.0963    -3509.232   -8050.7195 
  136000    4843.3339    370.37226    3542.5434    375.36318   -618.31519   -242.95201    7.2757418   -43.521732    4880.6122   -1571.4086    117.56101    211.07043    624.46195            0    953.09338   -6408.4991   -45.460554      16.9073      16.9207      16.9298            0            0            0    4182.1003    845.10722    248.39114    2938.8792     7063.516    625.23486 
  137000    4843.3339    384.35687    4618.7121    389.53624   -636.85111   -247.31487    78.928127   -50.387999    4932.2271   -1525.1679    104.81762    155.70781    627.79138            0     888.3168    -6407.007   -45.460554      16.9073      16.9207      16.9298            0            0            0    1637.2401   -362.98048   -3911.5403    1830.2275    6224.9097    5800.9992 
  138000    4843.3339    377.29922    4862.2268    382.38348   -622.54913   -240.16565    103.27802    -45.81741    4908.2848   -1546.6471    117.90626    187.47534    618.71634            0    924.09794   -6409.1144   -45.460554      16.9073      16.9207      16.9298            0            0            0    1363.4476   -1459.5777    14.824093     10009.99    1466.8482    3109.8426 
  139000    4843.3339    374.72318    4202.7428    379.77273   -648.22059   -268.44786    28.413118   -65.500892    4900.0204   -1574.7068    125.36104    178.89461     622.2306            0    926.48625   -6409.2264   -45.460554      16.9073      16.9207      16.9298            0            0            0    3218.4868   -900.00057    387.12542    2979.4328     6756.617    2872.1785 
  140000    4843.3339    369.34165   -609.47129    374.31868    -629.9369   -255.61821   -298.66825   -50.280649    4904.5881   -1558.3595    125.71718    183.12041    619.58507            0    928.42265    -6412.667   -45.460554      16.9073      16.9207      16.9298            0            0            0   -1187.7967    255.50408    1901.3096    -2747.552    1869.1634   -950.02521 
  141000    4843.3339    367.75303    407.02895    372.70866   -634.05298   -261.34432   -232.59381    -87.45264    4943.2157   -1556.2198    114.86014    184.46992    622.83671            0    922.16677   -6411.9828   -45.460554      16.9073      16.9207      16.9298            0            0            0    1124.7581   -890.43281    2211.7358   -2803.9718   -2405.1927    6430.2513 
  142000    4843.3339    366.93955    1325.8317    371.88421    -646.3934   -274.50919   -180.85899   -73.685174    4938.9974   -1547.1169    104.94238    176.18392    619.59717            0    900.72347   -6412.4291   -45.460554      16.9073      16.9207      16.9298            0            0            0   -1060.7396     4353.139   -20.160955    52.002381    6024.8706   -2099.3778 
  143000    4843.3339    350.65047    -4281.598    355.37563   -622.82578   -267.45014   -569.88106   -55.624957    4924.9136   -1541.3823     128.5054     173.8511    616.20006            0    918.55656   -6410.6709   -45.460554      16.9073      16.9207      16.9298            0            0            0   -390.81377   -1415.5167    767.37332   -3028.8619     -10052.6    236.66769 
  144000    4843.3339    392.86017    821.52887    398.15412   -653.23404   -255.07992   -197.05118   -74.444309    4924.9405   -1561.8374    104.18975    180.55851    623.85508            0    908.60335   -6412.3335   -45.460554      16.9073      16.9207      16.9298            0            0            0    -3856.481    765.10202     -2464.18     2221.962    3051.9186    -2809.294 
  145000    4843.3339    371.04645    3856.3083    376.04645   -634.57095    -258.5245    13.866059   -50.980574    4899.7011   -1560.4529    109.51689    192.91206    623.45301            0    925.88195   -6409.1734   -45.460554      16.9073      16.9207      16.9298            0            0            0    4145.7094    761.26519   -2074.2089    6742.3822    1091.2973    3735.2453 
  146000    4843.3339    371.87769    2406.0867     376.8889   -610.86119   -233.97229   -64.018213    -29.74862    4908.7392   -1529.3096    112.98214    176.60155    628.86475            0    918.44844   -6408.3002   -45.460554      16.9073      16.9207      16.9298            0            0            0   -3257.7118    2249.6419    2680.0946     3567.977    1756.5262     1893.757 
  147000    4843.3339    365.80599   -2878.5476    370.73538   -641.42044   -270.68505   -474.01143   -90.811579    4927.4625   -1573.1362    111.12498    190.85938    629.73139            0    931.71576   -6409.7871   -45.460554      16.9073      16.9207      16.9298            0            0            0    87.254248   -169.14963    116.91842   -5107.1319   -4571.4817    1042.9707 
  148000    4843.3339     378.0705    3947.1198    383.16515   -609.84098   -226.67583    52.129209   -83.147974    4953.8852   -1544.1538    124.55194    187.06271    622.69817            0    934.31283    -6414.891   -45.460554      16.9073      16.9207      16.9298            0            0            0   -1729.5607    288.46443    4196.7367    7980.8562    4897.1086   -1036.6054 
  149000    4843.3339    381.62987   -2490.8049     386.7725   -640.37838   -253.60589   -429.54403   -85.579924    4939.2812   -1554.8132    111.12951    179.08428    624.22103            0    914.43483   -6408.5145   -45.460554      16.9073      16.9207      16.9298            0            0            0    947.87455   -1060.3744    -469.4014    3556.2853    -3511.131    -7517.569 
  150000    4843.3339    413.84512    3573.7923    419.42185   -647.00019   -227.57833    24.856692   -73.390164    4930.0814   -1556.9866    113.33084    184.20209    612.45349            0    909.98642   -6413.6778   -45.460554      16.9073      16.9207      16.9298            0            0            0   -4748.2533    53.908167    873.78436     4596.879    2445.5772    3678.9207 
  151000    4843.3339    383.49516   -2047.6965    388.66291    -608.8596   -220.19668   -364.83584   -56.281579    4903.6022   -1559.0549    127.34784    196.05314     626.7943            0    950.19528   -6406.3755   -45.460554      16.9073      16.9207      16.9298            0            0            0    3106.5263   -2806.7685    3709.7454   -5311.7769    2522.6116   -3353.9241 
  152000    4843.3339    379.83151   -2106.8048     384.9499   -624.60669   -239.65679   -388.47107   -50.144531    4919.1907   -1538.7238    119.23165    178.99493    615.89054            0    914.11712     -6407.77   -45.460554      16.9073      16.9207      16.9298            0            0            0    2230.0385    -538.3524    3724.8828   -4629.0054   -1205.4976   -485.91149 
  153000    4843.3339     355.9741    1449.3051      360.771   -667.30615   -306.53515    -204.1634   -66.523643    4896.4826   -1579.6342    113.37591    179.47777    619.47438            0    912.32806   -6409.5932   -45.460554      16.9073      16.9207      16.9298            0            0            0   -4782.1754   -1555.3977    1226.7798   -4072.9545    1680.2939    6740.5758 
  154000    4843.3339     382.0362   -716.50308     387.1843   -606.20597   -219.02168   -269.63191   -88.098024     4908.409   -1585.5781    130.18314    221.60671    627.58226            0    979.37211    -6405.889   -45.460554      16.9073      16.9207      16.9298            0            0            0    2168.1432   -3018.5988   -3262.9072    -4083.195   -1796.4852     3730.171 
  155000    4843.3339    370.91874    79.184414    375.91703   -646.16043    -270.2434    -264.6502   -86.713556    4918.2269   -1572.3295    100.14845    200.90464    625.11596            0    926.16905   -6403.8428   -45.460554      16.9073      16.9207      16.9298            0            0            0   -648.15317    832.55817   -3109.6233    4636.5716    -2666.134   -1732.8843 
  156000    4843.3339    378.62919    4107.2295    383.73138   -608.74914   -225.01776    65.096627   -50.650131    4906.5627   -1555.9086    128.58054    193.73441    624.84451            0    947.15946   -6411.8211   -45.460554      16.9073      16.9207      16.9298            0            0            0    3766.0851    4289.5869    6420.2539    2728.1696    5324.6144    4268.9044 
  157000    4843.3339    370.79546    1166.7944    375.79208   -630.50425   -254.71216   -172.29557   -64.567555    4911.5724   -1563.7965    117.10732    184.68909    631.49587            0    933.29228   -6410.8013   -45.460554      16.9073      16.9207      16.9298            0            0            0     -203.623   -1089.0432   -1294.4495   -1586.6747    2090.5643    2996.4937 
  158000    4843.3339     358.1995    5722.0179    363.02639   -651.38188   -288.35549    115.81957   -58.814757     4920.593   -1552.9624    101.01541    178.75024    621.81486            0    901.58051   -6414.7407   -45.460554      16.9073      16.9207      16.9298            0            0            0   -304.24391   -4303.3155    3474.9979    264.09588    6918.4101    9983.5478 
  159000    4843.3339     406.8205    518.14361    412.30257   -666.15622   -253.85364   -217.25454   -56.701287    4903.4652   -1564.6555    104.56804    169.08098    624.85029            0    898.49931   -6411.4194   -45.460554      16.9073      16.9207      16.9298            0            0            0    4326.8122    104.14706   -2246.4676    1412.9574   -2190.5222    2331.9956 
  160000    4843.3339     361.6923    3269.7724    366.56626   -633.46366   -266.89741   -35.936843   -53.002499    4917.2282   -1547.9857    116.62114    178.56558    619.33536            0    914.52208   -6412.2115   -45.460554      16.9073      16.9207      16.9298            0            0            0   -643.10933   -5209.7299    204.88702   -1143.0626     8770.056    2182.3239 
  161000    4843.3339    346.20956     131.0802    350.87488   -610.83991   -259.96502   -250.70617     -74.4488    4953.3882   -1533.8992     109.6628    192.61805    620.77845            0     923.0593   -6412.8386   -45.460554      16.9073      16.9207      16.9298            0            0            0   -1207.0431   -3741.9888    813.94256   -2333.5455   -2927.3134    5654.0995 
  162000    4843.3339    384.67531    725.40401    389.85897   -588.85124   -198.99227   -147.75332   -77.510518    4949.5526   -1532.5994    122.20518    199.94315    621.59981            0    943.74814   -6404.6414   -45.460554      16.9073      16.9207      16.9298            0            0            0   -1057.6826   -1182.8688   -291.74517   -3735.9988    5628.1572    284.05369 
  163000    4843.3339    368.01332   -1098.8929    372.97245   -628.73901   -255.76656   -333.38692   -76.397589    4943.3119   -1539.6395     109.0657    185.88572    615.94911            0    910.90054   -6406.5538   -45.460554      16.9073      16.9207      16.9298            0            0            0    166.52559   -1627.4347   -776.71505     658.6461     181.2755   -4136.6004 
  164000    4843.3339     404.5162   -1216.4626    409.96723   -616.65464   -206.68741   -292.61232   -66.972138    4925.7586   -1552.9604    113.53835    199.98496    622.78244            0    936.30575   -6411.7468   -45.460554      16.9073      16.9207      16.9298            0            0            0    1879.0843   -1692.5667    4558.2886   -2912.6344    393.45916   -1130.2125 
  165000    4843.3339     395.0224   -3474.3212    400.34549   -625.80662   -225.46113   -470.87001   -99.480438    4934.6007   -1575.7355    123.34635    204.91556    621.66702            0    949.92893   -6410.8558   -45.460554      16.9073      16.9207      16.9298            0            0            0    764.63471   -480.41385    2445.2554   -7626.3894   -3689.5197    892.94537 
  166000    4843.3339    365.92451   -1890.8438    370.85549   -602.14462   -231.28913   -364.84898   -87.352951    4941.8009   -1554.7004    122.30269    200.87228    629.38081            0    952.55578   -6409.1483   -45.460554      16.9073      16.9207      16.9298            0            0            0   -2809.4585    1306.9976   -2065.4995   -5523.1483   -2210.7775    2061.3946 
  167000    4843.3339    360.26393   -595.93806    365.11863   -675.80274   -310.68411   -352.77823   -87.391557    4938.8518    -1560.496    113.20449    153.57149    617.91725            0    884.69322   -6411.9562   -45.460554      16.9073      16.9207      16.9298            0            0            0    123.56671    2456.0602     2581.261   -3046.9561    5787.7342   -4528.5923 
  168000    4843.3339    353.77366   -219.11492    358.54091   -629.83685   -271.29594   -286.77313   -88.958881    4957.3082   -1539.0285    120.06452    170.29178    618.83538            0    909.19168   -6407.3778   -45.460554      16.9073      16.9207      16.9298            0            0            0    3823.9887   -1517.8848    3266.0224    5099.3679   -4135.5124   -1621.2002 
  169000    4843.3339    398.29116    2130.8457     403.6583    -616.3607    -212.7024    -62.18999   -74.283949    4955.9478   -1528.5152    111.85167    186.03977    614.26308            0    912.15452   -6410.1791   -45.460554      16.9073      16.9207      16.9298            0            0            0    4705.4654    2133.4206   -393.38409    832.76724    4404.7768    1154.9931 
  170000    4843.3339    360.31951    880.10221    365.17496    -604.0291   -238.85413   -176.68806     -82.1012    4967.5426   -1526.9374    104.21148    194.98957    623.70723            0    922.90829   -6412.3788   -45.460554      16.9073      16.9207      16.9298            0            0            0   -1915.3532    2441.5304    2116.1483     382.0957    3380.8512   -1122.6402 
  171000    4843.3339    382.88545    410.37414    388.04499   -661.26806   -273.22307   -244.23627   -74.328584    4910.6926   -1569.5177    118.97583    165.08788    624.18592            0    908.24963   -6405.8817   -45.460554      16.9073      16.9207      16.9298            0            0            0    1419.2138    6441.4505   -2547.3155    573.60079    3654.4116     -2996.89 
  172000    4843.3339    370.81023   -6019.1272    375.80705   -676.38427   -300.57722   -725.73861   -66.646828     4913.747   -1566.6745    99.929355    165.50412    624.85677            0    890.29024   -6413.7747   -45.460554      16.9073      16.9207      16.9298            0            0            0   -1489.9015    1246.7832   -2455.7497   -6153.1622   -7087.4504    -4816.769 
  173000    4843.3339    374.66107   -440.00659    379.70978   -607.26574   -227.55596   -258.63585   -36.193179    4895.9516   -1549.9253    132.54575    183.14124    626.97257            0    942.65957   -6409.6837   -45.460554      16.9073      16.9207      16.9298            0            0            0    1112.8099    384.40184    2637.7429   -5188.7754   -9.0191989    3877.7748 
  174000    4843.3339    358.08437    1878.7207     362.9097     -668.275    -305.3653   -172.66175   -72.528739     4906.361   -1576.8227    114.71346    166.35745    627.47679            0     908.5477    -6410.655   -45.460554      16.9073      16.9207      16.9298            0            0            0    272.17222   -467.84984   -3492.5141    2496.6636    2.8556127     3136.643 
  175000    4843.3339    358.99223    2359.2791     363.8298   -631.39605   -267.56625   -100.91844   -73.753891    4940.7816   -1544.8972    118.41506    182.93884     612.1473            0    913.50119   -6411.9249   -45.460554      16.9073      16.9207      16.9298            0            0            0    3668.7087   -2988.8548   -24.684641    6960.5757   -2199.7696    2317.0311 
  176000    4843.3339    379.68268    6976.4433    384.79906   -652.65749   -267.85843    224.92304   -69.263678    4935.7922   -1544.6513     103.0881    167.04591    621.85979            0     891.9938   -6411.1798   -45.460554      16.9073      16.9207      16.9298            0            0            0    -1488.596   -3260.4456    -3524.999    8608.9532    4540.3714    7780.0052 
  177000    4843.3339    382.41406    -1672.146    387.56725   -653.35659   -265.78933   -383.90146   -87.413241    4948.2258   -1552.6606       117.49    159.07742    622.73657            0    899.30399   -6413.4732   -45.460554      16.9073      16.9207      16.9298            0            0            0   -2484.4828   -3134.8722   -578.16678   -2960.9589   -3803.8367    1748.3577 
  178000    4843.3339    369.44451    2203.5403    374.42293    -645.1422   -270.71927   -115.07208   -64.445257    4950.4384   -1523.8685    93.551491    165.04579    620.12898            0    878.72626   -6409.8616   -45.460554      16.9073      16.9207      16.9298            0            0            0   -3435.1199   -3147.2887   -5227.4501    1491.5089    1570.6795    3548.4324 
  179000    4843.3339     386.3681    333.79631    391.57457   -636.22382   -244.64924   -221.07152   -45.959462    4903.8561   -1553.1645    110.77576    181.70292    624.46201            0    916.94069   -6411.0612   -45.460554      16.9073      16.9207      16.9298            0            0            0   -1767.6063    2130.0847    154.99397    6632.4426   -2747.4376   -2883.6161 
  180000    4843.3339    352.15305    934.09691    356.89846   -647.10602   -290.20756   -224.22757   -60.905325    4908.8745   -1560.1808    108.40453    192.18455    612.48565            0    913.07473     -6408.15   -45.460554      16.9073      16.9207      16.9298            0            0            0    -140.3566    2789.7523   -1566.2244   -1038.8577     1879.566    1961.5824 
  181000    4843.3339     363.7253   -359.93788    368.62665   -633.22452   -264.59787    -290.0221   -57.108737      4911.51   -1558.6315    105.18844    200.21666    620.00193            0    925.40702   -6413.0328   -45.460554      16.9073      16.9207      16.9298            0            0            0    2927.7722    315.99699   -7629.7172    823.35353    304.70175   -2207.8689 
  182000    4843.3339     369.9619   -2936.2998    374.94729   -593.87355   -218.92626   -426.33196   -71.894661    4948.5819   -1535.7591    121.94098      202.424    617.52053            0    941.88551   -6412.4463   -45.460554      16.9073      16.9207      16.9298            0            0            0   -217.06877    3109.1724    2827.6741   -1814.2306   -3118.6027   -3876.0659 
  183000    4843.3339    380.77339     4497.355    385.90447   -658.26709   -272.36262    45.308305    -61.79952    4907.1789   -1565.1702    110.45361    170.86742    625.58207            0    906.90311   -6410.5496   -45.460554      16.9073      16.9207      16.9298            0            0            0   -1338.2537   -1943.3928    545.72081    3819.4146    2300.4159    7372.2343 
  184000    4843.3339    369.54923    1778.5494    374.52906   -635.66647   -261.13741   -135.50947   -52.692504     4922.036     -1542.34    101.42381    190.23173    615.01794            0    906.67348   -6411.6835   -45.460554      16.9073      16.9207      16.9298            0            0            0   -5195.6957   -1263.0208    -2526.615   -1285.4679    1803.2135    4817.9026 
  185000    4843.3339    370.49251   -3384.3793    375.48506   -686.77765    -311.2926   -550.34842   -54.476588    4894.6077   -1573.7993    98.270844    158.60979    630.14104            0    887.02167   -6413.9305   -45.460554      16.9073      16.9207      16.9298            0            0            0    1875.0479   -321.58278    625.83944    245.69983   -5226.0764   -5172.7612 
  186000    4843.3339    357.31193     77.61445    362.12686   -633.07796    -270.9511    -265.4688   -53.741204    4917.6021   -1544.0526    117.73769    168.10506    625.13194            0    910.97469   -6407.9135   -45.460554      16.9073      16.9207      16.9298            0            0            0   -1990.1165    -1212.016   -2637.8934    54.953509    1288.0562   -1110.1663 
  187000    4843.3339    380.66962    4780.7909     385.7993   -613.60642   -227.80712    109.88432   -67.210898    4947.9744   -1531.9597    109.51377    187.09415    621.74532            0    918.35324   -6412.7231   -45.460554      16.9073      16.9207      16.9298            0            0            0   -4193.5493   -3410.1715   -1327.1185      6000.56    2861.6012    5480.2115 
  188000    4843.3339    366.69708    666.82941    371.63847   -662.30552   -290.66705   -243.56551    -77.53759    4914.9535   -1573.1366    108.32376    170.00878    632.49851            0    910.83105   -6410.5525   -45.460554      16.9073      16.9207      16.9298            0            0            0    1524.8171   -2062.0356    3901.4869    3753.4409    277.39874   -2030.3514 
  189000    4843.3339    364.12499   -2352.5742    369.03173   -626.11003   -257.07831   -423.25252   -88.335732    4919.1596   -1579.0778    113.78013    205.15955    634.02813            0    952.96781   -6409.9017   -45.460554      16.9073      16.9207      16.9298            0            0            0   -3234.6541   -595.54819    703.27566   -4182.8697   -6244.2167    3369.3639 
  190000    4843.3339    375.96496    2038.4569    381.03125   -629.43003   -248.39879   -104.41227   -69.671575    4922.5476   -1559.3241    105.93889    192.38314    631.57203            0    929.89406   -6412.2001   -45.460554      16.9073      16.9207      16.9298            0            0            0    -1089.892   -620.76384    1566.4766    2880.1428    2081.9002    1153.3277 
  191000    4843.3339    384.83133   -4261.5774     390.0171     -581.796    -191.7789   -492.79567   -69.473592    4933.9645   -1537.6847    144.45647    185.44205    625.99023            0    955.88874   -6402.1756   -45.460554      16.9073      16.9207      16.9298            0            0            0    488.02379   -1095.3051   -2218.2681   -1218.5144   -4479.4122   -7086.8054 
  192000    4843.3339    358.71146    177.23187    363.54524   -627.98266   -264.43742   -251.91863   -60.933259    4911.6721   -1556.9561    119.79769    184.63049    624.54529            0    928.97347   -6407.6949   -45.460554      16.9073      16.9207      16.9298            0            0            0   -3789.7308   -577.21157   -606.92205    2579.5182   -2708.6611    660.83851 
  193000    4843.3339    361.02316   -5265.6238     365.8881   -634.14731   -268.25921   -640.19685   -117.41639     4966.908   -1562.6368    115.87673    193.39834    619.21439            0    928.48946   -6412.1283   -45.460554      16.9073      16.9207      16.9298            0            0            0    3052.1387    398.49292   -14.771785    -5100.742   -233.57922    -10462.55 
  194000    4843.3339     353.2043    836.78614    357.96387   -651.40456   -293.44069   -234.33425   -73.274224    4943.4861   -1539.9961    109.57384    156.50781    622.50986            0    888.59151   -6410.2079   -45.460554      16.9073      16.9207      16.9298            0            0            0    655.66467    364.80667    2552.8021   -27.091026   -1384.3665    3921.8159 
  195000    4843.3339    360.76682    584.21952     365.6283   -611.85888   -246.23057   -204.96419   -41.489941    4914.0926   -1537.9426     104.0309    200.98282    621.06998            0     926.0837   -6410.5452   -45.460554      16.9073      16.9207      16.9298            0            0            0    1614.6499    2221.6678   -2586.7371    2076.0827    1676.4985   -1999.9227 
  196000    4843.3339    385.36982   -481.82228    390.56284   -599.77727   -209.21443   -243.24797   -86.011514    4944.2124   -1549.4201    129.23573    196.42488    623.98224            0    949.64285    -6407.621   -45.460554      16.9073      16.9207      16.9298            0            0            0    2151.1621    -3272.238   -484.26529   -2261.1427   -111.61406    927.28997 
  197000    4843.3339    401.46702   -1498.3805    406.87696   -621.88725   -215.01029   -320.84849   -71.650212    4928.5422   -1548.5893    124.49952    169.45918    632.74331            0      926.702   -6405.4812   -45.460554      16.9073      16.9207      16.9298            0            0            0    450.23486    3111.2534     840.9763    345.84662   -3432.7016   -1408.2866 
[...]
 9955000    4843.3339    382.56799   -1203.0685    387.72325   -641.01438   -253.29113   -338.26994    -77.13123    4917.9566   -1573.3366    117.65347    192.42157    622.24714            0    932.32218    -6414.162   -45.460554      16.9073      16.9207      16.9298            0            0            0     2528.544    254.75293   -2702.8739   -1015.6862   -645.47068   -1948.0485 
 9956000    4843.3339    393.94107    348.14973    399.24959   -651.29735   -252.04777   -227.45619   -60.940598    4898.1711   -1571.2807    118.61665     182.2524    619.11429            0    919.98333   -6408.5112   -45.460554      16.9073      16.9207      16.9298            0            0            0     3291.892    856.79494    107.95953   -4923.5192    4.9551026    5963.0133 
 9957000    4843.3339    368.88696   -1592.3214    373.85787   -607.42443   -233.56656   -346.04028   -86.293285    4939.6264   -1552.5579    122.65376    194.26725    628.21244            0    945.13344    -6405.891   -45.460554      16.9073      16.9207      16.9298            0            0            0   -1259.2159   -1361.9326    1683.6511    4740.7794   -7118.9334   -2398.8103 
 9958000    4843.3339    384.13289   -4063.0715    389.30925    -644.2643   -254.95505   -541.95034   -96.423112    4962.9622   -1548.3547    104.20411    178.62762    621.25869            0    904.09041   -6414.8938   -45.460554      16.9073      16.9207      16.9298            0            0            0    2446.1894   -1355.1131   -2569.4759    -4677.369   -3931.2688   -3580.5765 
 9959000    4843.3339    372.66526    5488.3078    377.68708   -614.88248    -237.1954    150.47154   -60.054627    4929.4537   -1539.1374    118.84638    180.73441    624.67412            0    924.25491   -6408.5365   -45.460554      16.9073      16.9207      16.9298            0            0            0    1563.1505    2113.8116   -1979.1171    2991.8699      5283.51    8189.5436 
 9960000    4843.3339    381.84475     195.7377    386.99026   -643.22818   -256.23791   -242.41197   -75.371552    4920.1437   -1564.6328    124.13345    173.64442     623.6268            0    921.40467    -6409.405   -45.460554      16.9073      16.9207      16.9298            0            0            0   -2723.2079    2860.4485   -2313.4775   -5483.7939    2771.8949     3299.112 
 9961000    4843.3339    413.49367   -7.6405242    419.06567    -644.4484   -225.38273   -225.92242    -92.83636     4952.814   -1548.3197    114.42702    172.52976    616.91455            0    903.87132   -6408.2974   -45.460554      16.9073      16.9207      16.9298            0            0            0   -1770.1714    1945.0546    4469.8237    1468.5368    3187.2365   -4678.6949 
 9962000    4843.3339    342.43585   -116.80041    347.05032   -634.43975   -287.38943   -295.63964   -85.555847    4915.6538   -1583.4509     116.1449    209.19395    623.67232            0    949.01117   -6413.5489   -45.460554      16.9073      16.9207      16.9298            0            0            0    1761.7276    1160.5978   -436.85351   -525.23733    1188.3343   -1013.4982 
 9963000    4843.3339     369.5571   -484.80102    374.53704   -636.72394    -262.1869   -296.43085   -82.838054    4944.2722   -1547.4255    111.84174    185.70348    613.15638            0     910.7016   -6408.8597   -45.460554      16.9073      16.9207      16.9298            0            0            0   -1287.5009    3958.9958    1765.4241   -1847.5413   -3340.8615    3733.9997 
 9964000    4843.3339    364.31567    2488.5721    369.22498   -645.63695   -276.41197   -100.63154   -83.123524    4941.5215   -1556.2196    105.87733    185.61078    619.09454            0    910.58264   -6414.6176   -45.460554      16.9073      16.9207      16.9298            0            0            0    3399.2789   -2647.6696   -197.70033    3906.0724    1754.2316    1805.4123 
 9965000    4843.3339    368.65811   -3289.2901    373.62593   -575.92278   -202.29685   -434.63604   -55.012891    4942.9341    -1519.359    139.06516    175.51227    628.85883            0    943.43626   -6407.2803   -45.460554      16.9073      16.9207      16.9298            0            0            0    757.22291   -3270.9931    3378.6709    -770.5505   -6135.9297     -2961.39 
 9966000    4843.3339    384.80746    2454.5606     389.9929   -640.56525   -250.57235    -77.19432   -66.137349     4946.906   -1529.6408    104.96819    173.68792    610.41948            0    889.07559   -6410.4095   -45.460554      16.9073      16.9207      16.9298            0            0            0    1718.9778    3205.0309   -3042.1325    3563.0896    5352.4806   -1551.8882 
 9967000    4843.3339    382.69739    -2314.814     387.8544   -611.17866   -223.32426   -386.83129    -61.03245    4912.2274   -1552.0307    119.23545     190.7795    630.83704            0    940.85199   -6403.2256   -45.460554      16.9073      16.9207      16.9298            0            0            0   -2012.5852    5035.0416   -2647.9578    -346.4733   -4327.1399   -2270.8289 
 9968000    4843.3339    375.89123    3401.9324    380.95652   -621.55746   -240.60094  -0.30524382   -62.348829    4952.3473   -1524.5117    102.56061    180.82897    619.56463            0    902.95422   -6414.5102   -45.460554      16.9073      16.9207      16.9298            0            0            0   -475.49275    1867.1828   -3278.3914    1523.4814    6202.5664    2479.7495 
 9969000    4843.3339    368.55648    3512.6896    373.52293   -598.66969   -225.14675    22.972282   -58.690322     4933.143   -1532.4158    121.87833    192.59695    619.27085            0    933.74612   -6406.8685   -45.460554      16.9073      16.9207      16.9298            0            0            0     2936.402   -2038.8212   -1378.6193    3032.1505    1595.6449    5910.2735 
 9970000    4843.3339    361.21591   -2891.1946    366.08345    -617.5844   -251.50095   -455.72064   -49.278648    4917.3324   -1542.2081    119.08758    186.94959    618.58655            0    924.62372   -6410.2619   -45.460554      16.9073      16.9207      16.9298            0            0            0   -496.45221   -1074.4816   -3247.5231   -3155.4476    -3677.875   -1840.2612 
 9971000    4843.3339    375.73727    5467.1262    380.80049   -629.33063   -248.53014    137.64063   -52.060434    4924.3136   -1538.1452    93.173753    191.64007    624.00079            0    908.81461   -6410.3984   -45.460554      16.9073      16.9207      16.9298            0            0            0   -1261.7646   -3654.0427    1811.2328    5514.9126    5312.0927    5574.3734 
 9972000    4843.3339    364.79001    -1049.443    369.70571   -633.72527   -264.01956   -338.14702   -88.151923     4959.245   -1538.3384    106.17336    185.18158    613.25822            0    904.61316   -6409.4315   -45.460554      16.9073      16.9207      16.9298            0            0            0    1021.6053    757.10161    933.09756    -1124.863   -1593.8847   -429.58135 
 9973000    4843.3339    384.87922    2428.9628    390.06563   -633.55437   -243.48874    -71.91882   -59.768144    4928.5003   -1539.4223    107.70965    177.17144    620.98687            0    905.86796   -6408.1545   -45.460554      16.9073      16.9207      16.9298            0            0            0   -2232.5215   -3073.1031    2238.9585    7609.2582    2131.9643   -2454.3342 
 9974000    4843.3339    375.49129    3878.0709    380.55119   -634.39716   -253.84597    20.081788   -82.506848    4946.9376   -1548.6774    96.473315    206.86029    610.94662            0    914.28023   -6413.1082   -45.460554      16.9073      16.9207      16.9298            0            0            0   -3625.1844   -67.632705    855.80529    2278.3604    5136.0979    4219.7542 
 9975000    4843.3339    367.17917   -1319.4487    372.12706    -609.2651   -237.13804   -330.33737   -85.386462    4960.7842   -1536.5221    115.61454     185.3138    626.32869            0    927.25703   -6411.9199   -45.460554      16.9073      16.9207      16.9298            0            0            0   -464.09948    4998.7383    3511.2237   -1624.4238   -636.48086   -1697.4414 
 9976000    4843.3339    351.65103   -4464.3471    356.38968   -630.57529   -274.18561   -589.52503   -61.036042    4921.5181   -1544.8832    125.39865    172.90424    616.00506            0    914.30794   -6405.3653   -45.460554      16.9073      16.9207      16.9298            0            0            0   -400.50653   -7644.7376   -3347.3687   -5077.4804   -6321.0604   -1994.5006 
 9977000    4843.3339    357.31981   -414.53172    362.13484   -641.32275    -279.1879   -308.46837   -75.366118    4923.2949   -1557.4721    126.67948    170.55369    618.91618            0    916.14935   -6405.4008   -45.460554      16.9073      16.9207      16.9298            0            0            0   -326.19686   -1560.1581   -5089.3792   -1314.9405   -2065.6139    2136.9592 
 9978000    4843.3339    364.84879   -2166.8331    369.76528   -638.33668   -268.57139   -421.62577   -98.558958    4950.2773   -1550.1202    106.54473    183.59498    621.64383            0    911.78354   -6401.8385   -45.460554      16.9073      16.9207      16.9298            0            0            0    4708.6193   -594.24564    3011.0134    1490.5621   -1773.2698   -6217.7915 
 9979000    4843.3339    351.67586   -1510.0339    356.41484   -636.49003   -280.07519   -386.73652   -49.718211     4893.731   -1566.3418    124.70278    177.10928    628.03966            0    929.85172   -6410.3546   -45.460554      16.9073      16.9207      16.9298            0            0            0    189.70874   -877.56069    -269.9955    1917.6045   -4470.7293    -1976.977 
 9980000    4843.3339     355.1682    1281.1184    359.95424    -596.6272   -236.67296   -146.18109   -43.839198      4953.94   -1502.4094    108.74848    182.40937     614.6243            0    905.78215   -6412.5102   -45.460554      16.9073      16.9207      16.9298            0            0            0   -179.97353    -2397.444   -1960.9828    3364.1146   -2286.2741    2765.5147 
 9981000    4843.3339    355.75328     2468.964    360.54721   -621.70365   -261.15644   -86.761027   -66.717733     4932.527   -1542.8272    120.36958    176.56055    624.19338            0    921.12351   -6408.6364   -45.460554      16.9073      16.9207      16.9298            0            0            0    4067.6144    2295.9884    234.98864    1424.0986    2617.2675     3365.526 
 9982000    4843.3339    363.11285   -1313.5879    368.00595   -647.08858   -279.08263   -371.86799   -61.455052    4891.2173   -1583.8135     120.4175    194.70494    621.60245            0    936.72489   -6413.5757   -45.460554      16.9073      16.9207      16.9298            0            0            0   -3500.5837    820.50429   -340.49427   -2427.3403   -1649.9668    136.54323 
 9983000    4843.3339    384.88645   -2811.8296    390.07296   -588.37183   -198.29887   -396.91261   -59.773429    4909.5036   -1562.9382    162.64863    183.89772    628.02007            0    974.56642   -6412.6684   -45.460554      16.9073      16.9207      16.9298            0            0            0    2769.4308   -4485.0901    773.39227   -340.80776     -5218.38   -2876.3009 
 9984000    4843.3339    367.51894    1984.3073    372.47141   -606.82769   -234.35628    -94.19462    -57.44962    4924.3547   -1544.2182    119.79468    203.36481    614.23106            0    937.39055   -6411.1234   -45.460554      16.9073      16.9207      16.9298            0            0            0   -127.48034    2424.6734    -5826.216    5518.2714    1878.7991   -1444.1487 
 9985000    4843.3339    409.81445     504.6884    415.33687   -619.43511   -204.09824   -168.44955   -93.889556    4958.8667    -1546.158    115.79967    189.48104     621.4422            0    926.72292   -6411.1352   -45.460554      16.9073      16.9207      16.9298            0            0            0   -2470.9897    -3578.234   -1683.8207    1155.8815   -4317.9425    4676.1262 
 9986000    4843.3339    415.75907   -3205.1923     421.3616    -632.0543    -210.6927   -437.09164   -66.900417    4908.0109   -1567.2902    106.64091    209.14831    619.44669            0    935.23591   -6408.4007   -45.460554      16.9073      16.9207      16.9298            0            0            0    5665.0241     932.1029    115.83378    571.83025    -5771.406   -4416.0011 
 9987000    4843.3339    366.27269    791.21995    371.20837   -609.89483   -238.68646   -182.79859   -75.061567    4954.6836     -1531.84    108.60873     181.4172    631.91921            0    921.94514    -6411.462   -45.460554      16.9073      16.9207      16.9298            0            0            0    150.40114    1095.1632    405.56138    762.41859   -3857.2568    5468.4981 
 9988000    4843.3339    392.19287   -603.35477    397.47783   -600.77536   -203.29753   -245.91553   -92.508756     4952.204   -1548.4987    115.07954    214.39217    618.25158            0    947.72329   -6408.1939   -45.460554      16.9073      16.9207      16.9298            0            0            0   -1956.1322     2715.401   -39.490025   -5119.2528    4125.5137   -816.32514 
 9989000    4843.3339     368.2075    -1316.386    373.16925   -656.17914    -283.0099   -375.99289   -42.801445    4875.8172   -1571.5142    113.05314    177.89293    624.38897            0    915.33504   -6404.5299   -45.460554      16.9073      16.9207      16.9298            0            0            0    -868.2109    1381.4345    722.26543   -1219.4125   -5161.9417    2432.1963 
 9990000    4843.3339    380.23978    2692.4469    385.36367   -640.85027    -255.4866   -65.305459   -73.048445    4910.3166   -1574.4436    116.68283    190.15305    626.75746            0    933.59335   -6411.7118   -45.460554      16.9073      16.9207      16.9298            0            0            0   -2556.3613    3220.7933    587.39346    3192.4453    4496.6722     388.2231 
 9991000    4843.3339    391.69043     1324.976    396.96862   -599.79867   -202.83005    -109.2403   -80.706237    4917.7967   -1575.9476    124.72099    220.39086    631.03707            0    976.14893    -6413.038   -45.460554      16.9073      16.9207      16.9298            0            0            0   -1241.0036   -3380.8259   -2746.0457    1528.6322    57.754259    2388.5414 
 9992000    4843.3339    380.54969    1161.4034    385.67776   -641.57111   -255.89335   -173.85756   -68.352647    4899.8438   -1575.8981     112.5698    202.14985    619.60729            0    934.32694   -6407.3892   -45.460554      16.9073      16.9207      16.9298            0            0            0    3175.9949    866.89195    -2551.045    924.87972    3271.0951   -711.76474 
 9993000    4843.3339    407.85219    1607.2698    413.34817   -643.85355   -230.50539   -116.97579   -58.087634    4914.8111   -1549.6315    111.47395     174.4463    619.85766            0    905.77792   -6406.3549   -45.460554      16.9073      16.9207      16.9298            0            0            0     1802.603    619.92826   -706.38728   -888.06067    2588.9654    3120.9045 
 9994000    4843.3339    364.13687    2691.9102    369.04377   -640.87214   -271.82838   -81.685147    -95.70183    4949.4912   -1552.4087    103.69903    193.06665    614.77085            0    911.53654    -6406.198   -45.460554      16.9073      16.9207      16.9298            0            0            0    1775.3499   -528.38221    2284.8424    1218.8847    4651.4846    2205.3613 
 9995000    4843.3339    371.83003   -904.88423     376.8406   -612.42693   -235.58633   -299.50288   -75.950581    4921.1193   -1559.4857    120.84699    207.52926     618.6825            0    947.05874   -6404.6544   -45.460554      16.9073      16.9207      16.9298            0            0            0    2719.5877   -5049.0165   -3523.9245     3085.318   -6711.6256    911.65497 
 9996000    4843.3339    358.61022     3702.571    363.44265   -662.52777   -299.08513   -37.553814   -48.484465     4910.096    -1551.154    102.91642    165.49455    620.21522            0    888.62619   -6412.7655   -45.460554      16.9073      16.9207      16.9298            0            0            0   -915.19397   -454.42608    529.96928    717.13583    4756.1127    5634.4645 
 9997000    4843.3339    377.26285   -1190.6224    382.34662   -637.34459   -254.99796   -339.09765   -41.072405    4872.4699     -1576.81    126.33823    189.10104    624.02618            0    939.46544   -6408.2075   -45.460554      16.9073      16.9207      16.9298            0            0            0   -518.14802   -3491.9936    6359.9557    542.91099   -3739.6122   -375.16605 
 9998000    4843.3339    371.32798    4158.4798    376.33178   -630.33252   -254.00073    39.733723   -39.727347    4912.0193   -1536.7454    102.85489    183.36384    620.19419            0    906.41292   -6409.0374   -45.460554      16.9073      16.9207      16.9298            0            0            0    -1653.145     -2281.55     2204.018    5948.9305    1575.1636    4951.3451 
 9999000    4843.3339     387.2765    1349.2735    392.49521   -641.45424   -248.95903   -153.65301   -82.931734    4938.5009   -1554.3094    103.40997    180.37316    629.07208            0    912.85521   -6409.8786   -45.460554      16.9073      16.9207      16.9298            0            0            0    -2062.559   -586.98414     584.2708    4193.3031    -1208.306    1062.8236 
10000000    4843.3339    348.94775   -1147.2198    353.64997   -631.15995   -277.50998   -358.54392   -88.676973    4944.9906   -1559.5078    109.25773    186.96201    632.12814            0    928.34787   -6415.8214   -45.460554      16.9073      16.9207      16.9298            0            0            0    2589.6167    2671.9992   -1141.5537   -2637.8264   -2593.7649    1789.9319 
Loop time of 5564.01 on 4 procs for 10000000 steps with 341 atoms

Performance: 155.284 ns/day, 0.155 hours/ns, 1797.265 timesteps/s
92.7% CPU use with 4 MPI tasks x 1 OpenMP threads

MPI task timing breakdown:
Section |  min time  |  avg time  |  max time  |%varavg| %total
---------------------------------------------------------------
Pair    | 1390       | 1572       | 1746.2     | 329.1 | 28.25
Bond    | 177.49     | 181.42     | 186.26     |  24.0 |  3.26
Kspace  | 2567       | 2743.7     | 2920.5     | 245.9 | 49.31
Neigh   | 191.73     | 192.83     | 193.9      |   7.7 |  3.47
Comm    | 730.95     | 741.49     | 747.97     |  23.8 | 13.33
Output  | 3.4421     | 3.5025     | 3.6699     |   5.2 |  0.06
Modify  | 44.845     | 47.644     | 50.362     |  39.2 |  0.86
Other   |            | 81.43      |            |       |  1.46

Nlocal:    85.25 ave 89 max 80 min
Histogram: 1 0 0 0 0 0 2 0 0 1
Nghost:    1625.25 ave 1670 max 1573 min
Histogram: 1 0 0 0 1 0 1 0 0 1
Neighs:    9106.75 ave 9936 max 7814 min
Histogram: 1 0 0 0 0 1 0 0 1 1

Total # of neighbors = 36427
Ave neighs/atom = 106.824
Ave special neighs/atom = 5.85924
Neighbor list builds = 407651
Dangerous builds = 0


write_restart   restart.${NAME}
write_restart   restart.mol
PPPM initialization ...
  using 12-bit tables for long-range coulomb (src/kspace.cpp:332)
  G vector (1/distance) = 0.371916
  grid = 12 12 12
  stencil order = 5
  estimated absolute RMS force accuracy = 0.0291692
  estimated relative force accuracy = 8.78421e-05
  using double precision KISS FFT
  3d grid and FFT values/proc = 3211 432
write_data	data.*
PPPM initialization ...
  using 12-bit tables for long-range coulomb (src/kspace.cpp:332)
  G vector (1/distance) = 0.371916
  grid = 12 12 12
  stencil order = 5
  estimated absolute RMS force accuracy = 0.0291692
  estimated relative force accuracy = 8.78421e-05
  using double precision KISS FFT
  3d grid and FFT values/proc = 3211 432
Total wall time: 1:32:44
