LAMMPS data file via write_data, version 3 Mar 2020, timestep = 10000000

294 atoms
8 atom types
226 bonds
5 bond types
275 angles
8 angle types
270 dihedrals
6 dihedral types

0.0000000000000000e+00 1.5793200000000001e+01 xlo xhi
0.0000000000000000e+00 1.5793200000000001e+01 ylo yhi
0.0000000000000000e+00 1.5793200000000001e+01 zlo zhi

Masses

1 6.941
2 16
3 19
4 12.01
5 32.06
6 14.01
7 16
8 1.008

Pair Coeffs # lj/cut/coul/long

1 0.0182661 2.126
2 0.209859 2.96
3 0.0609584 3.118
4 0.109326 3.4
5 0.249833 3.564
6 0.169886 3.25
7 0.155323 3.165
8 0 0

Bond Coeffs # harmonic

1 492.67 1.466
2 363.556 1.344
3 248.733 1.782
4 256.929 1.752
5 529.23 1.012

Angle Coeffs # harmonic

1 41.2526 108.48
2 45.27 121.88
3 43.0716 107.06
4 81.1647 109.67
5 71.2115 107.16
6 39.3938 103.12
7 109.646 119.18
8 37.9249 113.24

Dihedral Coeffs # charmm

1 0.143897 3 0 0
2 0.143897 3 0 0
3 0.499666 3 180 0
4 6.79545 1 180 0
5 0.499666 3 180 0
6 6.79545 1 180 0

Atoms # full

104 16 2 -4.6100000000000002e-01 2.9437929104286669e+00 6.2310129464740420e+00 4.0550197161131925e+00 -1 1 0
5 5 1 8.0000000000000004e-01 2.8918268165149330e+00 3.9182644664070159e+00 4.8140848021574518e+00 2 5 0
125 17 2 -4.6100000000000002e-01 3.1473141900214654e+00 4.5412046194275382e+00 6.9067150295233812e+00 1 1 1
196 36 7 -8.1999999999999995e-01 3.5589603169646242e+00 1.9728476701365703e+00 5.0321925123958424e+00 2 2 4
107 16 2 -4.6100000000000002e-01 4.0818645773749562e+00 3.9741926456745627e+00 2.8332081378574143e+00 -1 1 0
197 36 8 4.0999999999999998e-01 3.7792669471235176e+00 1.7796956112557203e+00 4.0728544324046458e+00 2 2 4
103 16 5 9.1100000000000003e-01 3.3015253135835176e+00 7.1696672028034101e+00 2.9802438288240416e+00 -1 1 0
124 17 5 9.1100000000000003e-01 3.8193402115663053e+00 5.4484859654974382e+00 7.7880235675401908e+00 1 1 1
102 16 4 3.1900000000000001e-01 5.0380987949016705e+00 7.5588947726625388e+00 3.5481460120881230e+00 -1 1 0
109 16 5 9.1100000000000003e-01 3.4198018134155297e+00 4.4942284418178886e+00 1.6454964956522216e+00 -1 1 0
198 36 8 4.0999999999999998e-01 3.3863297689887930e+00 1.1792268348949051e+00 5.6478117188237915e+00 2 2 4
106 16 6 -5.8799999999999997e-01 3.6348347285790132e+00 6.2587958148142260e+00 1.5533698345528437e+00 -1 1 0
122 17 2 -4.6100000000000002e-01 5.1828101357786434e+00 5.7932576057148628e+00 7.4278690860038123e+00 1 1 1
110 16 2 -4.6100000000000002e-01 1.9543701983135149e+00 4.2780583185306416e+00 1.5302958062107743e+00 -1 1 0
113 16 4 3.1900000000000001e-01 4.2761271951870299e+00 3.9072777442345079e+00 1.9591497940502081e-01 -1 1 0
141 18 3 -1.3800000000000001e-01 2.9357565329631745e+00 7.7986192892327366e-01 2.4758317769348737e+00 -1 0 0
191 34 8 4.0999999999999998e-01 2.0289837006389044e+00 7.3501338487115868e+00 4.7577668330104378e-01 -5 -3 -3
127 17 3 -1.3800000000000001e-01 2.8800555376340560e+00 7.7675276199960797e+00 6.8401775226146677e+00 1 1 1
175 29 7 -8.1999999999999995e-01 9.3897602338031105e-01 3.6694159345709223e+00 4.6963194801052728e+00 -6 10 11
177 29 8 4.0999999999999998e-01 1.9726558034922015e-01 3.8460179964115326e+00 5.4437315158288992e+00 -6 10 11
176 29 8 4.0999999999999998e-01 6.0053080484160548e-01 2.8839905525181404e+00 4.1523453045358183e+00 -6 10 11
108 16 3 -1.3800000000000001e-01 5.6976136292893420e+00 6.6014996187029951e+00 4.0586292108499942e+00 -1 1 0
40 12 2 -4.6100000000000002e-01 6.2980423426055632e+00 1.1728626570470936e-01 6.1322867833986452e+00 0 0 2
55 13 2 -4.6100000000000002e-01 7.6722591062746748e+00 7.5705064403255777e+00 5.1300336302105054e-01 0 -1 0
58 13 5 9.1100000000000003e-01 8.4268935289537410e+00 6.3076118364382046e+00 3.2012365832028450e-01 0 -1 0
97 15 3 -1.3800000000000001e-01 6.7147820210589968e+00 9.6405977261037404e-03 1.1310043086681645e+00 0 -1 -1
96 15 3 -1.3800000000000001e-01 7.7183026978373128e+00 1.7754477219540246e+00 4.9933054999267912e-01 0 -1 -1
111 16 3 -1.3800000000000001e-01 5.5535522454619795e+00 4.3280204044708874e+00 2.3807664322615707e-01 -1 1 0
48 12 3 -1.3800000000000001e-01 6.3902610101658004e+00 1.5990593543086067e+00 3.4941905979965733e+00 0 0 2
270 60 8 4.0999999999999998e-01 7.0115573218477190e+00 5.8379821032040384e+00 6.9800330664385966e+00 3 1 1
43 12 5 9.1100000000000003e-01 7.4778003072773460e+00 9.3663622764780985e-01 5.7517343461889334e+00 0 0 2
56 13 3 -1.3800000000000001e-01 9.3162864181515381e+00 4.3095038691250060e+00 1.7713619528641225e+00 0 -1 0
45 12 3 -1.3800000000000001e-01 6.3950684000124607e+00 3.1354371013887499e+00 5.0326134083454539e+00 0 0 2
42 12 4 3.1900000000000001e-01 7.1214571726387632e+00 2.1262216255438089e+00 4.4682778279326643e+00 0 0 2
60 13 3 -1.3800000000000001e-01 7.3713927132530674e+00 4.7239886663482000e+00 2.2353276790548793e+00 0 -1 0
44 12 2 -4.6100000000000002e-01 8.3179967727666195e+00 1.4113007420725712e+00 6.8372637029495911e+00 0 0 2
57 13 4 3.1900000000000001e-01 8.5239881342484836e+00 5.3676437265876364e+00 1.9026656942426077e+00 0 -1 0
268 60 7 -8.1999999999999995e-01 8.0253786250322232e+00 6.0299870506157198e+00 6.7159973897459082e+00 3 1 1
41 12 3 -1.3800000000000001e-01 8.2783329401666474e+00 2.5719811277778239e+00 3.8817017546411519e+00 0 0 2
269 60 8 4.0999999999999998e-01 8.6652270660907877e+00 5.3190582219080120e+00 7.0075874885722165e+00 3 1 1
98 15 4 3.1900000000000001e-01 7.4546510670652415e+00 5.4952649464026981e-01 1.6112505337327054e-01 0 -1 -1
63 13 3 -1.3800000000000001e-01 9.0778300108032042e+00 6.0082214588441500e+00 2.9690968050991278e+00 0 -1 0
66 13 3 -1.3800000000000001e-01 1.2023523615852982e+01 6.8270122056981748e+00 2.2613421157935818e+00 0 -1 0
186 32 8 4.0999999999999998e-01 1.5589811704567827e+01 4.2579059890521895e+00 1.4781279364556679e+00 0 -2 -6
78 14 3 -1.3800000000000001e-01 1.0745496558415523e+01 7.0790835567657471e+00 5.3241488346005603e+00 0 1 -2
76 14 6 -5.8799999999999997e-01 1.2422983401154072e+01 5.0877458158429434e+00 6.9166396494135594e+00 0 1 -2
153 21 8 4.0999999999999998e-01 1.5136825801167145e+01 8.9989213336282392e-01 2.6296770865287709e+00 7 -4 9
51 12 3 -1.3800000000000001e-01 1.1381707606211261e+01 1.3632358394252389e-01 3.5558443325977334e+00 0 0 2
160 24 7 -8.1999999999999995e-01 1.5217777020272448e+01 6.8628782605133507e+00 3.4884955316983386e+00 5 -1 0
79 14 5 9.1100000000000003e-01 1.3431195997529612e+01 3.7512176487125273e+00 7.1772010993237023e+00 0 1 -2
73 14 5 9.1100000000000003e-01 1.2847590947318835e+01 6.7949665647220474e+00 6.8773609816460892e+00 0 1 -2
68 13 4 3.1900000000000001e-01 1.2303721627737820e+01 7.7360665270774183e+00 1.3040203131554888e+00 0 -1 0
161 24 8 4.0999999999999998e-01 1.4615374832506049e+01 6.4989690073278990e+00 4.2718246669268947e+00 5 -1 0
77 14 2 -4.6100000000000002e-01 1.2400584807167460e+01 2.7958856149015894e+00 7.5452181772044762e+00 0 1 -2
54 12 3 -1.3800000000000001e-01 1.1209581768497364e+01 1.5142141184549451e+00 5.2108507717214998e+00 0 0 2
74 14 2 -4.6100000000000002e-01 1.4081663539291011e+01 6.7718439331780633e+00 6.0906138248670842e+00 0 1 -2
184 32 7 -8.1999999999999995e-01 1.4650124443606813e+01 4.7042745115515965e+00 1.6196247021311012e+00 0 -2 -6
279 63 8 4.0999999999999998e-01 1.2094048112124941e+01 1.9700623609407302e+00 2.5559310588009598e+00 0 3 1
185 32 8 4.0999999999999998e-01 1.4744137960311555e+01 5.4474034734693966e+00 2.3736740171084438e+00 0 -2 -6
130 18 2 -4.6100000000000002e-01 1.4771890312855533e+01 9.5047165121738844e-02 1.1198072701287569e+00 -2 0 0
162 24 8 4.0999999999999998e-01 1.5370707169060442e+01 7.8633828948106670e+00 3.5906223540880413e+00 5 -1 0
278 63 8 4.0999999999999998e-01 1.3766667128181627e+01 2.1034371191875212e+00 2.8468109731214959e+00 0 3 1
53 12 4 3.1900000000000001e-01 1.1310628743322145e+01 2.3625884255980087e-01 4.9267072769032660e+00 0 0 2
277 63 7 -8.1999999999999995e-01 1.2989529265710406e+01 2.4299927360968065e+00 2.2470171433817110e+00 0 3 1
151 21 7 -8.1999999999999995e-01 1.5185948616012215e+01 1.3454214713378656e+00 3.5383884977897240e+00 7 -4 9
152 21 8 4.0999999999999998e-01 1.5359312930814133e+01 6.9097835893399417e-01 4.2790335003587892e+00 7 -4 9
72 14 4 3.1900000000000001e-01 1.1761356091884206e+01 7.8065414495542989e+00 5.8301069011524023e+00 0 1 -2
8 8 1 8.0000000000000004e-01 1.3407742812914787e+01 3.3205838798106480e+00 4.6933486606535346e-01 -2 -4 -4
80 14 2 -4.6100000000000002e-01 1.4166214038949882e+01 3.6742698468937145e+00 5.9026682821868270e+00 0 1 -2
69 13 3 -1.3800000000000001e-01 1.3238335527171671e+01 7.3242463891928695e+00 4.6536658540539921e-01 0 -1 0
119 17 2 -4.6100000000000002e-01 4.6123256875269725e+00 3.8407693168999222e+00 1.1476734008183541e+01 1 1 1
112 16 3 -1.3800000000000001e-01 3.7526459428185457e+00 4.4923871229554360e+00 1.4850225484580001e+01 -1 1 -1
118 17 5 9.1100000000000003e-01 5.2337721291204211e+00 4.3652597783822742e+00 1.0290048810198007e+01 1 1 1
252 54 8 4.0999999999999998e-01 2.7745502528192176e+00 6.3809523725713273e+00 1.2513132552352619e+01 1 0 -12
251 54 8 4.0999999999999998e-01 1.7887171370071704e+00 5.2822839440787313e+00 1.1742803144004412e+01 1 0 -12
234 48 8 4.0999999999999998e-01 2.8028090643506274e+00 3.4727503152808277e+00 1.2077657627027937e+01 -6 6 -5
250 54 7 -8.1999999999999995e-01 1.8773770481171785e+00 5.9157441558562187e+00 1.2513724572199193e+01 1 0 -12
1 1 1 8.0000000000000004e-01 3.0350197740608492e-01 6.1652339459991765e+00 1.4173088494474539e+01 5 2 -2
121 17 6 -5.8799999999999997e-01 3.7179296093030079e+00 4.6420546488993670e+00 9.3666401282158169e+00 1 1 1
232 48 7 -8.1999999999999995e-01 1.9659628487958083e+00 2.9559857261874001e+00 1.1827136333235584e+01 -6 6 -5
190 34 7 -8.1999999999999995e-01 1.7883628819746664e+00 7.4940094921282041e+00 1.5261201659769849e+01 -5 -3 -4
288 66 8 4.0999999999999998e-01 1.6185435616073718e+00 1.1855671128383281e+00 1.3883395885283340e+01 -7 -6 0
286 66 7 -8.1999999999999995e-01 2.2963150421946175e+00 4.8683343402227602e-01 1.4169341947364460e+01 -7 -6 0
233 48 8 4.0999999999999998e-01 2.1839525404089692e+00 2.3242985270455723e+00 1.1052915643099814e+01 -6 6 -5
18 10 3 -1.3800000000000001e-01 4.9120873806779395e+00 7.1497834211782472e+00 1.4346546985020741e+01 -2 -3 -3
248 53 8 4.0999999999999998e-01 3.3397022228159079e-01 3.6363374487686810e+00 1.3735474198585884e+01 3 -1 3
126 17 3 -1.3800000000000001e-01 2.0200949054829596e+00 7.0155720100022929e+00 8.6666812380064631e+00 1 1 1
231 47 8 4.0999999999999998e-01 5.5752222069661250e-01 5.3791001112008086e-01 1.1850795119074638e+01 7 0 -2
11 10 3 -1.3800000000000001e-01 4.2978306465355844e+00 6.8632367927729261e+00 1.2438938863553576e+01 -2 -3 -3
12 10 4 3.1900000000000001e-01 4.7339825556218580e+00 7.8538070123378398e+00 1.3214087575453281e+01 -2 -3 -3
82 14 3 -1.3800000000000001e-01 2.8391537143990144e-03 4.4231964822793470e+00 7.9586832503941052e+00 1 1 -2
128 17 4 3.1900000000000001e-01 3.1418422489244122e+00 7.0975623419388265e+00 8.0174027326591837e+00 1 1 1
287 66 8 4.0999999999999998e-01 3.0528330947696625e+00 7.3747675398055668e-01 1.4848560228715648e+01 -7 -6 0
129 17 3 -1.3800000000000001e-01 3.9850418834456716e+00 7.8493855564738162e+00 8.7834404777113360e+00 1 1 1
114 16 3 -1.3800000000000001e-01 4.2616729292738054e+00 2.6087926818875151e+00 1.5762675390580551e+01 -1 1 -1
120 17 3 -1.3800000000000001e-01 5.3304049953312118e+00 2.3145913958783582e+00 8.5454333108956124e+00 1 1 1
59 13 2 -4.6100000000000002e-01 8.0361650334395680e+00 5.4166029497923045e+00 1.5019524916590656e+01 0 -1 -1
115 17 2 -4.6100000000000002e-01 5.6922121872139382e+00 5.7656664921678988e+00 1.0249689223981875e+01 1 1 1
290 67 8 4.0999999999999998e-01 9.1551298242486041e+00 7.7256664070792462e+00 1.0250003712913049e+01 8 -6 -3
289 67 7 -8.1999999999999995e-01 9.8143732179914203e+00 7.7520965521615599e+00 9.4187373290813490e+00 8 -6 -3
61 13 6 -5.8799999999999997e-01 1.0037880610873225e+01 6.5843906406294934e+00 1.5704571314935993e+01 0 -1 -1
116 17 3 -1.3800000000000001e-01 6.9976256703465411e+00 3.7523484582117690e+00 8.4035320478616402e+00 1 1 1
117 17 4 3.1900000000000001e-01 6.1137303620059020e+00 3.1632181045032093e+00 9.2641016165900592e+00 1 1 1
285 65 8 4.0999999999999998e-01 1.0491557326616375e+01 4.4241022512182537e+00 9.7789979517291421e+00 2 2 3
291 67 8 4.0999999999999998e-01 1.0109525490594876e+01 6.8334589495938953e+00 9.1367823328177185e+00 8 -6 -3
123 17 3 -1.3800000000000001e-01 6.9460960780125962e+00 2.4198966187397648e+00 1.0070560544406447e+01 1 1 1
274 62 7 -8.1999999999999995e-01 7.9867738462704843e+00 4.6042449249261486e+00 1.2029354699704768e+01 5 4 -4
275 62 8 4.0999999999999998e-01 7.2787915284795863e+00 5.2260934712894338e+00 1.1714818675770546e+01 5 4 -4
276 62 8 4.0999999999999998e-01 8.2801631308673080e+00 4.9516411612830531e+00 1.2921885932400331e+01 5 4 -4
226 46 7 -8.1999999999999995e-01 9.2082123036746424e+00 4.4508874516149211e-01 9.4110691281280996e+00 6 -3 3
237 49 8 4.0999999999999998e-01 1.0190750578865217e+01 2.3702706632582440e+00 1.0568963700323364e+01 3 -2 -4
99 15 3 -1.3800000000000001e-01 6.8073698272559051e+00 6.4107580037675826e-01 1.4789919822436396e+01 0 -1 -2
235 49 7 -8.1999999999999995e-01 1.0253173517174496e+01 3.2543067848700264e+00 1.1133255918367128e+01 3 -2 -4
218 43 8 4.0999999999999998e-01 6.3215361300352990e+00 6.9735532006323098e+00 8.9581178009562770e+00 0 -2 -5
236 49 8 4.0999999999999998e-01 9.3776912929115728e+00 3.7412395479758245e+00 1.1367126252408001e+01 3 -2 -4
283 65 7 -8.1999999999999995e-01 1.0478539262437339e+01 5.1696223853649750e+00 9.0397812863857734e+00 2 2 3
228 46 8 4.0999999999999998e-01 8.8156438839321094e+00 7.9231699241512854e-01 8.4483244982479313e+00 6 -3 3
10 10 2 -4.6100000000000002e-01 7.2531718431018444e+00 7.5098398187621811e+00 1.2040559965650219e+01 -2 -3 -3
227 46 8 4.0999999999999998e-01 8.4238925566538789e+00 5.8801767469672772e-01 1.0076691301922923e+01 6 -3 3
217 43 7 -8.1999999999999995e-01 6.7819161358686468e+00 7.8413007478370442e+00 8.9165026716752749e+00 0 -2 -5
95 15 2 -4.6100000000000002e-01 9.4152789069092133e+00 2.4736176472730520e-02 1.4212074112787350e+01 0 -1 -2
249 53 8 4.0999999999999998e-01 1.4576305815506347e+01 3.6824466941992196e+00 1.4188991407845593e+01 2 -1 3
271 61 7 -8.1999999999999995e-01 1.3622039762266716e+01 1.8048097188202230e+00 1.4230247943359066e+01 -3 0 0
163 25 7 -8.1999999999999995e-01 1.2087093043528403e+01 4.2134216158678894e+00 1.4919225246807827e+01 -2 3 4
181 31 7 -8.1999999999999995e-01 1.4900512962481852e+01 7.4840695859305670e+00 1.3047643402837712e+01 4 4 0
272 61 8 4.0999999999999998e-01 1.2696611498455882e+01 1.5001517493292313e+00 1.3934063935631217e+01 -3 0 0
263 58 8 4.0999999999999998e-01 1.1909380718659124e+01 7.9521451673451049e-01 1.1323340611837947e+01 -7 -4 -1
70 14 2 -4.6100000000000002e-01 1.2946002005500683e+01 7.2815263072788783e+00 8.2672020915292102e+00 0 1 -2
195 35 8 4.0999999999999998e-01 1.3623725581247175e+01 7.8873240201449004e+00 9.8291460989146735e+00 6 1 0
254 55 8 4.0999999999999998e-01 1.2816105193671724e+01 5.3827537501318607e+00 1.1208046275104925e+01 -1 -3 -1
284 65 8 4.0999999999999998e-01 1.1090980836179153e+01 4.8184574059963747e+00 8.2868259011861127e+00 2 2 3
83 14 4 3.1900000000000001e-01 1.4635402577261116e+01 4.1720787902894436e+00 8.4911306135525138e+00 0 1 -2
84 14 3 -1.3800000000000001e-01 1.4759058600021362e+01 3.0641656642231410e+00 9.2265044822387399e+00 0 1 -2
81 14 3 -1.3800000000000001e-01 1.4300317788258260e+01 5.2457687689454575e+00 9.2925342439543908e+00 0 1 -2
253 55 7 -8.1999999999999995e-01 1.2420771247443307e+01 4.9333299258439478e+00 1.2053379223543171e+01 -1 -3 -1
164 25 8 4.0999999999999998e-01 1.2328421202486551e+01 4.5596737952157955e+00 1.3994726587953100e+01 -2 3 4
165 25 8 4.0999999999999998e-01 1.1408835945197829e+01 4.8716177246502239e+00 1.5265633123050032e+01 -2 3 4
182 31 8 4.0999999999999998e-01 1.4364416325317352e+01 7.3153755984739917e+00 1.2191625341673841e+01 4 4 0
262 58 7 -8.1999999999999995e-01 1.2351388076053141e+01 7.3029588945429136e-01 1.0364047640288922e+01 -7 -4 -1
264 58 8 4.0999999999999998e-01 1.3045142937081948e+01 1.3989034508428668e+00 1.0135747866948806e+01 -7 -4 -1
206 39 8 4.0999999999999998e-01 1.0788565575474371e+01 3.4883310313771165e-01 1.3321656695256175e+01 -3 1 -3
207 39 8 4.0999999999999998e-01 1.0966740290589922e+01 1.9040909311361165e+00 1.2703008978083234e+01 -3 1 -3
205 39 7 -8.1999999999999995e-01 1.1511431692578077e+01 1.0228819074165019e+00 1.2923377566777948e+01 -3 1 -3
255 55 8 4.0999999999999998e-01 1.1600066108198975e+01 4.3339489790781389e+00 1.1807333669568486e+01 -1 -3 -1
247 53 7 -8.1999999999999995e-01 1.5531911052698641e+01 4.0501848970536098e+00 1.4366213139175814e+01 2 -1 3
273 61 8 4.0999999999999998e-01 1.4287381955028888e+01 1.1194328587712998e+00 1.3859336542246497e+01 -3 0 0
139 18 5 9.1100000000000003e-01 1.8066500459656902e+00 1.4176466555134779e+01 2.3583652597192639e+00 -1 -1 0
140 18 2 -4.6100000000000002e-01 2.1723270725126667e+00 1.2768287006827553e+01 2.5201887602824291e+00 -1 -1 0
143 18 4 3.1900000000000001e-01 3.3099228671107697e+00 1.5313790243330189e+01 2.2935068098176061e+00 -1 -1 0
137 18 2 -4.6100000000000002e-01 8.6250065013683141e-01 1.4836164764000870e+01 3.2233422325218490e+00 -1 -1 0
144 18 3 -1.3800000000000001e-01 4.0575973133227201e+00 1.4974156082641843e+01 3.3493042196778098e+00 -1 -1 0
242 51 8 4.0999999999999998e-01 1.0787812565343835e+00 1.0828500764053421e+01 6.1243417070132162e+00 4 -3 6
243 51 8 4.0999999999999998e-01 1.0617456740336491e+00 1.0617951080097884e+01 4.5030606897158423e+00 4 -3 6
241 51 7 -8.1999999999999995e-01 1.6608829739552535e+00 1.0939295488091709e+01 5.3118675724767028e+00 4 -3 6
156 22 8 4.0999999999999998e-01 4.0558822020279273e+00 1.0284533339900799e+01 7.4958232568815673e+00 1 2 -2
136 18 6 -5.8799999999999997e-01 9.7712588444620907e-01 1.4302344765762838e+01 8.6696902450424196e-01 -1 -1 0
238 50 7 -8.1999999999999995e-01 8.9228169288128711e-02 9.5013163733665138e+00 3.3775025022787175e+00 -4 2 -8
33 11 3 -1.3800000000000001e-01 2.8006763376077330e+00 1.4898413047915856e+01 7.6700587460083094e+00 -3 -1 -1
101 16 3 -1.3800000000000001e-01 4.9960269721274386e+00 8.4364232060163378e+00 4.5769371284078213e+00 -1 1 0
142 18 3 -1.3800000000000001e-01 4.1018622297655831e+00 1.5089135403341126e+01 1.2263468604773342e+00 -1 -1 0
222 44 8 4.0999999999999998e-01 3.0312776639733334e+00 1.1541215288873651e+01 1.5073704428992094e+00 -4 -3 -4
220 44 7 -8.1999999999999995e-01 3.1875203219893966e+00 1.1078954392333442e+01 6.2337334212863438e-01 -4 -3 -4
239 50 8 4.0999999999999998e-01 7.2849911168713377e-01 9.2562221869582384e+00 2.6260452210340355e+00 -4 2 -8
154 22 7 -8.1999999999999995e-01 5.0938830026570248e+00 1.0197871179241524e+01 7.3320815491920062e+00 1 2 -2
208 40 7 -8.1999999999999995e-01 3.9303860176482495e+00 1.2383388014315983e+01 4.8689159672413842e+00 -1 -2 9
209 40 8 4.0999999999999998e-01 3.1428587824519574e+00 1.1837219781178668e+01 5.2094732569897149e+00 -1 -2 9
159 23 8 4.0999999999999998e-01 4.8256443059855778e+00 1.0618220793746360e+01 6.0136731113285635e-01 -5 -2 8
210 40 8 4.0999999999999998e-01 3.5936351700687861e+00 1.2827920004734059e+01 4.0109098425624596e+00 -1 -2 9
260 57 8 4.0999999999999998e-01 1.3383516567391140e-01 9.8823334275002637e+00 7.3350884520450101e+00 -3 4 6
221 44 8 4.0999999999999998e-01 2.2661716298141634e+00 1.0788090560290463e+01 2.5189071772980215e-01 -4 -3 -4
100 16 2 -4.6100000000000002e-01 2.5950908553291185e+00 8.2440980055674959e+00 2.4479619411374740e+00 -1 1 0
223 45 7 -8.1999999999999995e-01 6.9351851580554946e-01 1.0254606170684941e+01 1.3295311166078488e-01 5 -3 0
282 64 8 4.0999999999999998e-01 7.8505733059671039e+00 8.2143856902559893e+00 5.0810747763645567e+00 -2 -3 0
265 59 7 -8.1999999999999995e-01 7.5519709590546436e+00 1.2324686636189846e+01 6.2911235650224766e+00 -1 2 2
65 13 2 -4.6100000000000002e-01 9.8745941801158548e+00 8.8233271657028123e+00 1.1572437660452228e+00 0 -1 0
145 19 7 -8.1999999999999995e-01 6.3202418220000443e+00 1.1449140816035433e+01 3.6244840270839762e+00 -8 0 -2
146 19 8 4.0999999999999998e-01 7.1485447912776188e+00 1.1933042052063932e+01 3.1342979773956148e+00 -8 0 -2
147 19 8 4.0999999999999998e-01 5.5581173269921935e+00 1.2062383715230244e+01 3.9874120714205330e+00 -8 0 -2
158 23 8 4.0999999999999998e-01 5.7458270337750692e+00 1.0577439899020034e+01 1.9917801382050977e+00 -5 -2 8
50 12 2 -4.6100000000000002e-01 9.9398092723164861e+00 1.3556108116779793e+01 4.8927356171223790e+00 0 -1 2
157 23 7 -8.1999999999999995e-01 5.8058084118520545e+00 1.0414085138764055e+01 9.8508859551929540e-01 -5 -2 8
267 59 8 4.0999999999999998e-01 7.6686330016027551e+00 1.3388980466464766e+01 6.0303233723423126e+00 -1 2 2
256 56 7 -8.1999999999999995e-01 8.1408751671034043e+00 1.2896359630646947e+01 2.4641753427211928e+00 2 -5 4
9 9 1 8.0000000000000004e-01 6.5785851608776778e+00 1.0527938783876946e+01 5.4985094445348013e+00 -1 -3 4
258 56 8 4.0999999999999998e-01 8.3296905335917391e+00 1.3674286095100417e+01 3.1402791106713037e+00 2 -5 4
257 56 8 4.0999999999999998e-01 8.7018648613129752e+00 1.3051333321047892e+01 1.6359604803093024e+00 2 -5 4
204 38 8 4.0999999999999998e-01 9.7750654186558048e+00 1.0255069648809517e+01 3.3790967265122220e+00 3 6 0
49 12 5 9.1100000000000003e-01 1.0003189308901392e+01 1.4891896388257210e+01 5.5722779866590662e+00 0 -1 2
47 12 2 -4.6100000000000002e-01 9.9623873343595921e+00 1.5004661686499869e+01 7.0525827014038320e+00 0 -1 2
202 38 7 -8.1999999999999995e-01 9.3805259937512790e+00 1.0637174494999355e+01 4.1795000781818068e+00 3 6 0
203 38 8 4.0999999999999998e-01 9.7479448803197819e+00 1.1572097728051570e+01 4.3103911007738445e+00 3 6 0
46 12 6 -5.8799999999999997e-01 8.4663205244806008e+00 1.5502285182254916e+01 4.9143125571553163e+00 0 -1 2
266 59 8 4.0999999999999998e-01 8.1834540556164583e+00 1.2167507543100834e+01 7.0655608043215263e+00 -1 2 2
281 64 8 4.0999999999999998e-01 8.7098197406802385e+00 9.5832822077488604e+00 5.3010903498657376e+00 -2 -3 0
280 64 7 -8.1999999999999995e-01 8.0244342793782639e+00 8.9658136922049518e+00 5.7536459075025119e+00 -2 -3 0
92 15 2 -4.6100000000000002e-01 9.7987470288982266e+00 1.5485798678510180e+01 9.5558479402487806e-01 0 -2 -1
105 16 3 -1.3800000000000001e-01 5.7620589575126138e+00 8.1056657988220397e+00 2.6100767234613649e+00 -1 1 0
7 7 1 8.0000000000000004e-01 8.4730216076421048e+00 8.0676415670108348e+00 7.5948176407411498e+00 -3 2 -2
240 50 8 4.0999999999999998e-01 1.5081189578344260e+01 9.9062859650103654e+00 2.9754093169059885e+00 -5 2 -8
138 18 3 -1.3800000000000001e-01 1.4022819802816111e+01 1.3921836676718174e+01 3.1266391458015752e+00 -2 -1 0
170 27 8 4.0999999999999998e-01 1.2962019568997658e+01 1.4580574549499005e+01 7.4368572454058803e+00 4 -2 -1
64 13 5 9.1100000000000003e-01 1.0843977937778561e+01 8.1477936930652302e+00 2.4980507410425951e-01 0 -1 0
187 33 7 -8.1999999999999995e-01 1.4450520953663128e+01 1.2336630962851224e+01 7.6734789690703957e+00 -4 1 3
133 18 5 9.1100000000000003e-01 1.5035546609494979e+01 1.4519153017323736e+01 7.4675781011535736e-01 -2 -1 0
67 13 3 -1.3800000000000001e-01 1.2851661370843749e+01 8.7789950103725829e+00 1.9725872389228680e+00 0 -1 0
259 57 7 -8.1999999999999995e-01 1.5146841679737587e+01 1.0053062613689610e+01 6.6825717351580955e+00 -4 4 6
75 14 3 -1.3800000000000001e-01 1.1238489531196775e+01 8.7596823572407594e+00 6.5564142770403926e+00 0 1 -2
71 14 3 -1.3800000000000001e-01 1.2377566177417121e+01 8.3298337774824152e+00 4.8337690679378804e+00 0 1 -2
132 18 4 3.1900000000000001e-01 1.4000891635668907e+01 1.3446677473305771e+01 1.8679620274314623e+00 -2 -1 0
131 18 3 -1.3800000000000001e-01 1.4353702476880281e+01 1.2114436018154635e+01 1.8437751973056502e+00 -2 -1 0
261 57 8 4.0999999999999998e-01 1.5151332275776577e+01 9.3484430829220955e+00 5.9175649565085626e+00 -4 4 6
135 18 3 -1.3800000000000001e-01 1.2710373103828516e+01 1.3382605882824262e+01 1.4736312618630265e+00 -2 -1 0
189 33 8 4.0999999999999998e-01 1.4804413113288561e+01 1.1439838067177899e+01 7.2845524301021038e+00 -4 1 3
52 12 3 -1.3800000000000001e-01 1.2488691798916269e+01 1.5635585724391344e+01 5.4184151442047925e+00 0 -1 2
31 11 6 -5.8799999999999997e-01 1.1336801659562745e+00 1.2369720296208655e+01 9.7311845998184996e+00 -3 -1 -1
149 20 8 4.0999999999999998e-01 2.9352909303783150e+00 1.2544957073788865e+01 1.3698839891313654e+01 2 -2 5
148 20 7 -8.1999999999999995e-01 2.4673250965461593e+00 1.2968463536087027e+01 1.4473454048942722e+01 2 -2 5
36 11 3 -1.3800000000000001e-01 1.8011515972001191e+00 1.0524419115194418e+01 1.2315457986008489e+01 -3 -1 -1
38 11 4 3.1900000000000001e-01 2.1092479676391802e+00 1.0039717295411146e+01 1.1099228671730625e+01 -3 -1 -1
15 10 3 -1.3800000000000001e-01 3.7337290613699232e+00 8.7702661244830615e+00 1.3411796912946881e+01 -2 -3 -3
25 11 2 -4.6100000000000002e-01 3.0791554819615841e+00 1.3379968167803808e+01 1.1014641482324979e+01 -3 -1 -1
37 11 3 -1.3800000000000001e-01 3.3684920146139525e+00 1.0308203119842929e+01 1.0787594339314955e+01 -3 -1 -1
34 11 5 9.1100000000000003e-01 9.9586256395142281e-01 1.0605482837377162e+01 9.7530000800949797e+00 -3 -1 -1
150 20 8 4.0999999999999998e-01 2.6969918708532923e+00 1.2399219635026245e+01 1.5316151464888371e+01 2 -2 5
39 11 3 -1.3800000000000001e-01 2.0926635477742850e+00 8.7151323855479088e+00 1.1332364611454272e+01 -3 -1 -1
21 10 3 -1.3800000000000001e-01 4.6236995617462826e+00 1.1470934124886904e+01 1.2835256301447888e+01 -2 -3 -3
28 11 5 9.1100000000000003e-01 2.7165703413705344e+00 1.3138663178187260e+01 9.5883359037993774e+00 -3 -1 -1
6 6 1 8.0000000000000004e-01 1.2081526700523235e+00 1.4626746638173314e+01 1.4529343605141330e+01 6 -6 -2
29 11 2 -4.6100000000000002e-01 3.5913585842851510e+00 1.2283968374482845e+01 8.6907349786981953e+00 -3 -1 -1
224 45 8 4.0999999999999998e-01 8.6133399142042155e-01 9.4096490750964978e+00 1.5470247245010700e+01 5 -3 -1
30 11 3 -1.3800000000000001e-01 1.1009110192634177e+00 1.5155543401066373e+01 8.9358442069171389e+00 -3 -1 -1
27 11 4 3.1900000000000001e-01 2.4504785423990310e+00 1.4842600168466463e+01 8.9256618631165683e+00 -3 -1 -1
35 11 2 -4.6100000000000002e-01 1.3505038570651746e+00 1.0146087651883127e+01 8.3901098127085305e+00 -3 -1 -1
192 34 8 4.0999999999999998e-01 2.4597323879795212e+00 8.2080972140080455e+00 1.4914257017937057e+01 -5 -3 -4
229 47 7 -8.1999999999999995e-01 9.6343998845129689e-02 1.5755287390663234e+01 1.2558564792358537e+01 7 -1 -2
26 11 3 -1.3800000000000001e-01 3.1203632101719725e+00 1.5773105580776653e+01 9.6385583086485447e+00 -3 -1 -1
246 52 8 4.0999999999999998e-01 6.4862515417882207e+00 1.5415055144053611e+01 1.2130422271921827e+01 7 -4 1
213 41 8 4.0999999999999998e-01 6.0342929852675500e+00 1.4938784721181264e+01 8.0298764341719249e+00 -4 0 -4
166 26 7 -8.1999999999999995e-01 9.0222983324866100e+00 1.2012597903198731e+01 8.2182865100775242e+00 4 -6 -2
85 15 2 -4.6100000000000002e-01 9.1115374434085386e+00 1.1494384361251297e+01 1.4656420618253405e+01 0 -2 -2
24 10 3 -1.3800000000000001e-01 6.3891447407403978e+00 1.2108819306730451e+01 1.3771150143411123e+01 -2 -3 -3
22 10 3 -1.3800000000000001e-01 5.5209595596916214e+00 1.3327441245800209e+01 1.2212131672165826e+01 -2 -3 -3
23 10 4 3.1900000000000001e-01 5.7838410203556947e+00 1.2072242492339662e+01 1.2559500929890813e+01 -2 -3 -3
20 10 2 -4.6100000000000002e-01 6.4415917009301875e+00 1.1426428023335509e+01 9.9137752447489937e+00 -2 -3 -3
16 10 6 -5.8799999999999997e-01 6.0451556508339346e+00 9.4615455811608911e+00 1.1256242507474255e+01 -2 -3 -3
19 10 5 9.1100000000000003e-01 6.7348571226270151e+00 1.1044899237944589e+01 1.1308237938072523e+01 -2 -3 -3
17 10 2 -4.6100000000000002e-01 8.1956069892569499e+00 1.0893393080743804e+01 1.1661554498923737e+01 -2 -3 -3
14 10 2 -4.6100000000000002e-01 6.8487489857315724e+00 9.4045196506486004e+00 1.3717069230812799e+01 -2 -3 -3
89 15 2 -4.6100000000000002e-01 8.9517625514306900e+00 1.3316902891776090e+01 1.2976134474939309e+01 0 -2 -2
13 10 5 9.1100000000000003e-01 6.3701754030756534e+00 8.5368141449050103e+00 1.2598238700186071e+01 -2 -3 -3
245 52 8 4.0999999999999998e-01 8.0848498122848067e+00 1.5118090711728451e+01 1.2317347969616442e+01 7 -4 1
167 26 8 4.0999999999999998e-01 9.8619503321543629e+00 1.1448953469484438e+01 8.4654153624223074e+00 4 -6 -2
88 15 5 9.1100000000000003e-01 9.4738278091015502e+00 1.2800666707868279e+01 1.4252824572989574e+01 0 -2 -2
293 68 8 4.0999999999999998e-01 1.0060509007661272e+01 1.3000395854938255e+01 1.0967465335043213e+01 -2 -2 -3
168 26 8 4.0999999999999998e-01 8.9216089686964004e+00 1.2845541838021735e+01 8.8093026231166185e+00 4 -6 -2
212 41 8 4.0999999999999998e-01 6.8744141545346364e+00 1.4483983468590907e+01 9.3158074552051762e+00 -4 0 -4
219 43 8 4.0999999999999998e-01 6.4278044353936048e+00 8.4148102384390278e+00 9.6748274182661866e+00 0 -2 -5
211 41 7 -8.1999999999999995e-01 6.1570866377250546e+00 1.4186621804813090e+01 8.7094924050209759e+00 -4 0 -4
3 3 1 8.0000000000000004e-01 5.7447082976681410e+00 1.2262629423873323e+01 8.1043267555300265e+00 0 4 -4
216 42 8 4.0999999999999998e-01 9.8847094383116669e+00 1.0329037083176171e+01 1.2116376022852013e+01 1 6 2
4 4 1 8.0000000000000004e-01 7.4672347805282149e+00 9.7013857835785267e+00 1.5776949133928891e+01 8 -3 0
244 52 7 -8.1999999999999995e-01 7.4045009867188982e+00 1.5470684760061451e+01 1.1697258107959478e+01 7 -4 1
94 15 5 9.1100000000000003e-01 8.9529001344712036e+00 1.5372349834467984e+01 1.5568349425459260e+01 0 -2 -2
91 15 6 -5.8799999999999997e-01 8.5627288992858741e+00 1.3709636710493497e+01 1.5421063405703402e+01 0 -2 -2
155 22 8 4.0999999999999998e-01 5.5036693980036118e+00 9.6940262898206004e+00 8.1021209191637968e+00 1 2 -2
193 35 7 -8.1999999999999995e-01 1.3475097784331997e+01 7.9588349707537844e+00 1.0830993257791624e+01 6 1 0
292 68 7 -8.1999999999999995e-01 1.0569484894224374e+01 1.3371758635557438e+01 1.0184792636713951e+01 -2 -2 -3