variable        infile index data.mol
variable        mytemp index 373

# set up simulation
#read_restart    ${NAME}.restart.*

# the following information is saved to restart files
units           real
atom_style      full
boundary        p p p
pair_style      lj/cut/coul/long 7
kspace_style    pppm 0.0001
pair_modify     tail yes
pair_modify     mix arithmetic
special_bonds   amber

bond_style      harmonic
angle_style     harmonic
dihedral_style  charmm
#improper_style  cvff

read_data       ${infile}
read_data       data.mol
  orthogonal box = (0 0 0) to (15.7932 15.7932 15.7932)
  1 by 2 by 2 MPI processor grid
  reading atoms ...
  294 atoms
  reading velocities ...
  294 velocities
  scanning bonds ...
  4 = max bonds/atom
  scanning angles ...
  6 = max angles/atom
  scanning dihedrals ...
  12 = max dihedrals/atom
  reading bonds ...
  226 bonds
  reading angles ...
  275 angles
  reading dihedrals ...
  270 dihedrals
  4 = max # of 1-2 neighbors
  6 = max # of 1-3 neighbors
  12 = max # of 1-4 neighbors
  14 = max # of special neighbors
  special bonds CPU = 0.000566266 secs
  read_data CPU = 0.0129684 secs

#replicate       3 4 4

neighbor        2.0 bin
neigh_modify    delay 0 every 1 check yes page 1000000 one 20000
timestep        1.0
#velocity        all create ${mytemp} 314159265 mom yes rot yes dist gaussian

## end information that is saved to restart files

## create velocity profile
#minimize       1e-4 1e-6 10000 10000
#velocity        all create  ${mytemp} 314159265 units box
velocity        all zero linear units box
dump            DUMP all custom 1000 ${NAME}.lammpstrj id type x y z mol
dump            DUMP all custom 1000 mol.lammpstrj id type x y z mol
thermo_style    custom step vol temp press ke pe etotal enthalpy evdwl ecoul epair ebond eangle edihed eimp emol elong etail lx ly lz xy xz yz pxy pxz pyz pxx pyy pzz
thermo          1000
#
## thermostat and integrator

#fix             NPT all npt temp ${mytemp} ${mytemp} 100.0 iso 1.0 1.0 100.0
fix             NVT all nvt temp ${mytemp} ${mytemp} 100.0
fix             NVT all nvt temp 373 ${mytemp} 100.0
fix             NVT all nvt temp 373 373 100.0

restart         50000 restart.${NAME}.1 restart.${NAME}.2
restart         50000 restart.mol.1 restart.${NAME}.2
restart         50000 restart.mol.1 restart.mol.2
run             10000000
PPPM initialization ...
  using 12-bit tables for long-range coulomb (src/kspace.cpp:332)
  G vector (1/distance) = 0.3803
  grid = 12 12 12
  stencil order = 5
  estimated absolute RMS force accuracy = 0.0233741
  estimated relative force accuracy = 7.03904e-05
  using double precision KISS FFT
  3d grid and FFT values/proc = 3211 432
Neighbor list info ...
  update every 1 steps, delay 0 steps, check yes
  max neighbors/atom: 20000, page size: 1000000
  master list distance cutoff = 9
  ghost atom cutoff = 9
  binsize = 4.5, bins = 4 4 4
  1 neighbor lists, perpetual/occasional/extra = 1 0 0
  (1) pair lj/cut/coul/long, perpetual
      attributes: half, newton on
      pair build: half/bin/newton
      stencil: half/bin/3d/newton
      bin: standard
Per MPI rank memory allocation (min/avg/max) = 17.93 | 17.93 | 17.93 Mbytes
Step Volume Temp Press KinEng PotEng TotEng Enthalpy E_vdwl E_coul E_pair E_bond E_angle E_dihed E_impro E_mol E_long E_tail Lx Ly Lz Xy Xz Yz Pxy Pxz Pyz Pxx Pyy Pzz 
       0    3939.2215    352.75391   -316.56565    308.08728   -633.14392   -325.05664   -343.24318   -4.4124068    4751.6531   -1246.9248    96.886065    105.90763    410.98722            0    613.78091   -5994.1655   -31.145075      15.7932      15.7932      15.7932            0            0            0   -2292.2581    771.77249   -506.81319    800.10176    1620.9678   -3370.7666 
    1000    3939.2215    394.95808    480.94502    344.94744    -619.7126   -274.76516   -247.13511   0.80146026    4729.5363   -1264.3743    96.025662    140.92088    407.71519            0    644.66173   -5994.7121   -31.145075      15.7932      15.7932      15.7932            0            0            0   -345.90317    1829.5908   -6441.1197   -6428.4841     1917.347    5953.9722 
    2000    3939.2215    339.78066   -1930.6658    296.75673    -627.2747   -330.51797   -441.43377    9.9056074    4720.6669   -1266.7684    103.52942    130.58904     405.3752            0    639.49366   -5997.3408   -31.145075      15.7932      15.7932      15.7932            0            0            0      172.989   -2016.3814   -66.415691   -3515.8588    1516.4178   -3792.5564 
    3000    3939.2215    400.08008    147.84958    349.42088   -672.88291   -323.46203   -314.96815    5.6670234    4695.4703   -1298.3259    88.432703    138.54233    398.46797            0      625.443   -5999.4632   -31.145075      15.7932      15.7932      15.7932            0            0            0    1157.2704   -1141.6181    1124.7002   -1974.1524   -300.00569    2717.7068 
    4000    3939.2215    377.93628    3479.9065    330.08098   -635.75268    -305.6717   -105.75279    35.447799    4707.1793   -1253.7631    93.624999    121.84788    402.53756            0    618.01044   -5996.3902   -31.145075      15.7932      15.7932      15.7932            0            0            0   -2615.9208    4529.5876   -1182.7076    7963.3325   -1404.0715    3880.4586 
    5000    3939.2215     380.5728   -1410.5026    332.38366   -635.02304   -302.63938   -383.67206    27.829256    4695.6556   -1271.1534    108.20514     129.6831    398.24214            0    636.13038   -5994.6383   -31.145075      15.7932      15.7932      15.7932            0            0            0   -1007.3059    1699.5186   -106.13712    -1728.382   -3130.5941    627.46816 
    6000    3939.2215     389.3559    1108.4513    340.05462   -604.47426   -264.41963   -200.73966     29.99967    4709.8091   -1256.2447    108.96913    142.28639    400.51494            0    651.77046   -5996.0535   -31.145075      15.7932      15.7932      15.7932            0            0            0     1008.026     6612.284   -2498.7965    2135.6635   -743.35319    1933.0435 
    7000    3939.2215     350.9006   -3196.8636    306.46864   -575.34277   -268.87413   -452.53236   -28.443157    4793.2929   -1227.9179     119.1203    130.30153    403.15332            0    652.57514   -5992.7676   -31.145075      15.7932      15.7932      15.7932            0            0            0    4685.4323   -2754.7881    1141.7998   -4065.3852    -5339.245   -185.96055 
    8000    3939.2215    357.48024    5943.1349    312.21515   -639.82463   -327.60949    13.820675    10.174281    4716.1111   -1271.7753    97.035986    140.17612    394.73857            0    631.95067   -5998.0607   -31.145075      15.7932      15.7932      15.7932            0            0            0   -1529.9633   -1277.3792   -3136.9696     9775.815    1329.3358    6724.2539 
    9000    3939.2215    355.35987     987.6776    310.36326   -625.33474   -314.97148   -258.22989   -11.001917    4741.5395   -1263.2321    99.574591    138.21502    400.10772            0    637.89733   -5993.7696   -31.145075      15.7932      15.7932      15.7932            0            0            0   -4334.5856    -4876.526    1420.0488   -3219.1055    1318.9756    4863.1627 
   10000    3939.2215    382.66056   -4431.1154    334.20706   -612.35774   -278.15068   -532.71606   -17.422505    4787.9352   -1218.9381    92.741991    115.03477    398.80357            0    606.58033   -5989.4507   -31.145075      15.7932      15.7932      15.7932            0            0            0     2439.777   -1517.4374   -338.30665   -6907.5199   -3601.7798   -2784.0464 
   11000    3939.2215    379.63326   -5411.0207    331.56309   -625.50624   -293.94315   -604.80361   -2.8020672    4741.8438   -1257.2415    96.326584    140.00372    395.40494            0    631.73525   -5996.2832   -31.145075      15.7932      15.7932      15.7932            0            0            0   -1496.7922    1592.6117   -2266.3535   -5490.6242   -3966.0822   -6776.3557 
   12000    3939.2215    389.36121    1419.7255    340.05926   -613.73752   -273.67826   -192.11573   -2.2555082    4744.0611    -1255.326    102.09663    138.49273    400.99906            0    641.58843   -5997.1315   -31.145075      15.7932      15.7932      15.7932            0            0            0   -737.29314    2900.3109    821.71993    1826.9234    4324.2938   -1892.0406 
   13000    3939.2215    383.91018   -1891.7853    335.29846   -592.83613   -257.53767    -366.2198   -22.907655    4781.3567   -1234.9038     93.70805     143.0335    405.32614            0    642.06768   -5993.3528   -31.145075      15.7932      15.7932      15.7932            0            0            0    903.37374    336.92419    682.57107   -7617.2758   -2668.3901    4610.3102 
   14000    3939.2215     419.8223   -2011.2128    366.66329    -630.7108   -264.04751   -379.59069    15.804595    4711.5727   -1268.1172    111.04847    125.92416    400.43378            0    637.40641   -5995.4945   -31.145075      15.7932      15.7932      15.7932            0            0            0    2325.1579   -1022.9298   -1240.0834    -4809.485   -1946.5847    722.43119 
   15000    3939.2215    374.69825    4808.0715    327.25296   -620.22188   -292.96892   -16.747586    6.6564869    4726.1906   -1262.7629    91.135373    150.37745    401.02824            0    642.54106     -5995.61   -31.145075      15.7932      15.7932      15.7932            0            0            0   -1314.3909   -1497.9028   -8946.5183     3640.586     2086.278    8697.3505 
   16000    3939.2215    371.66384   -4757.9267    324.60278   -603.01463   -278.41185   -551.75239   -25.880169    4794.4721   -1227.9217    94.950302    124.62776      405.329            0    624.90705   -5996.5136   -31.145075      15.7932      15.7932      15.7932            0            0            0   -365.42061    2629.5094   -816.98446   -6631.3234   -1314.3813   -6328.0755 
   17000    3939.2215    390.89676    -2994.425    341.40037   -610.15795   -268.75758   -440.78581   -4.9077966    4718.6141   -1274.3918    103.91513     157.1235    403.19524            0    664.23386   -5988.0981   -31.145075      15.7932      15.7932      15.7932            0            0            0    1388.3685    3349.5401   -929.04433    2395.2682   -6251.4732   -5127.0701 
   18000    3939.2215    367.44842   -1988.3619    320.92113   -633.18568   -312.26455   -426.49496    -21.15119     4752.029   -1267.5105    87.605635    139.54069     407.1785            0    634.32482   -5998.3883   -31.145075      15.7932      15.7932      15.7932            0            0            0      1761.35   -1546.3771    406.98631   -128.59102   -5998.5395    162.04467 
   19000    3939.2215     370.6305   -1834.1788    323.70028   -607.23746   -283.53718   -388.90985    8.1835478    4748.9362   -1235.9613    99.473286    129.03357    400.21704            0    628.72389   -5993.0811   -31.145075      15.7932      15.7932      15.7932            0            0            0    847.64805   -3948.8237   -2732.5395   -1105.8147   -3946.2712   -450.45064 
   20000    3939.2215     357.5301   -6619.8741    312.25869   -631.34535   -319.08665   -699.39514   -19.179861    4756.9329   -1255.6887    105.32522    119.83916    399.17902            0     624.3434   -5993.4418   -31.145075      15.7932      15.7932      15.7932            0            0            0    3707.6185   -7156.1093   -498.67614   -7624.6099   -7100.7712   -5134.2411 
   21000    3939.2215     374.6758    642.41226    327.23335   -619.35565    -292.1223   -255.21603    15.863073     4721.287   -1260.7456    105.71659    138.87602    396.79732            0    641.38992   -5997.8956   -31.145075      15.7932      15.7932      15.7932            0            0            0    1578.5796    2581.4404    1556.4701    537.60025    2083.9639   -694.32742 
   22000    3939.2215    371.11326   -428.52589    324.12192   -614.66258   -290.54066   -315.15926   0.73595303    4724.1188   -1270.6763    109.28383    143.84154    402.88833            0     656.0137    -5995.531   -31.145075      15.7932      15.7932      15.7932            0            0            0   -1815.5007   -2755.7919    2500.8889    92.913229    834.62548   -2213.1164 
   23000    3939.2215    361.58692    3659.9037    315.80183   -586.19517   -270.39334   -60.133682    10.893351    4741.2894   -1239.7113     107.2609    138.36712     407.8881            0    653.51612    -5991.894   -31.145075      15.7932      15.7932      15.7932            0            0            0    2974.7236    2769.0418    3586.3564    3079.9208    3363.1621    4536.6282 
   24000    3939.2215    392.38189   -2652.5931    342.69746   -609.39282   -266.69536   -419.08552   -32.930523     4816.672   -1213.0555    89.219849    111.06662    403.37619            0    603.66266    -5996.797   -31.145075      15.7932      15.7932      15.7932            0            0            0    1003.0609    1156.4164   -1337.1775    -5888.761   -523.23599   -1545.7824 
   25000    3939.2215    370.26944   -7591.1397    323.38494   -620.20131   -296.81637    -732.9236   -7.9569012    4736.8243   -1262.3073    97.753398    139.15727    405.19528            0    642.10595   -5991.1747   -31.145075      15.7932      15.7932      15.7932            0            0            0    2553.7266    2492.7365   -1842.2221   -5832.1398    -12089.22   -4852.0595 
   26000    3939.2215    378.76725   -3087.8952    330.80674   -620.66724    -289.8605   -467.25855   -10.495057    4737.1874   -1262.8063     96.90519    147.26569    397.96814            0    642.13903   -5989.4986   -31.145075      15.7932      15.7932      15.7932            0            0            0   -2163.5973      3511.82    6470.2924    472.40174   -4412.0348   -5324.0527 
   27000    3939.2215    401.08051   -987.47904    350.29463   -623.59883    -273.3042   -330.03438    1.4764293    4749.1506   -1243.7004    103.47677     121.1311    395.49373            0     620.1016   -5994.3274   -31.145075      15.7932      15.7932      15.7932            0            0            0    2046.8522    5377.8531    238.28947    3636.0399    1422.9041   -8021.3811 
   28000    3939.2215    370.19315    1196.4086    323.31831    -624.4898   -301.17148    -232.4384    19.246914    4722.7672   -1252.9365    104.71229    133.55762    390.17683            0    628.44674   -5994.9506   -31.145075      15.7932      15.7932      15.7932            0            0            0    580.60059   -2194.5247   -1775.7901     1736.513    4481.6061   -2628.8934 
   29000    3939.2215    370.10886   -3697.6805    323.24469   -628.27454   -305.02985   -517.45976   -1.3763913    4725.0094   -1275.4493    104.67361     138.6524    403.84877            0    647.17478   -5999.0823   -31.145075      15.7932      15.7932      15.7932            0            0            0    5453.8362    3181.4578   -3494.0996    -12017.87    4161.6472   -3236.8189 
   30000    3939.2215    375.22665    1689.3323    327.71446   -586.46621   -258.75176   -161.70045   -2.3369059    4753.6568   -1239.6986    105.25784    145.33881    402.63576            0    653.23242   -5991.0186   -31.145075      15.7932      15.7932      15.7932            0            0            0    2261.3926   -1661.6671    3317.4387    2580.6283    2059.5878    427.78075 
   31000    3939.2215    365.96981    1753.7932    319.62974   -627.45402   -307.82428   -207.06973    4.4661575    4731.3473   -1262.3218    102.86514    137.03383    394.96882            0    634.86779   -5998.1353   -31.145075      15.7932      15.7932      15.7932            0            0            0    1064.3504   -890.02063   -2383.3526   -3396.4007    3250.2331    5407.5473 
   32000    3939.2215    400.50257   -2009.2679    349.78987   -625.91784   -276.12797   -391.55942   -20.812238    4749.5818     -1258.09    103.25706    123.58709    405.32802            0    632.17218   -5986.8596   -31.145075      15.7932      15.7932      15.7932            0            0            0    -395.0637    1246.1238   -206.22752    -2384.674   -4740.7193    1097.5894 
   33000    3939.2215    351.09782     1129.616    306.64088    -591.7638   -285.12292   -220.22704   -4.4368162    4762.8493   -1236.3977    103.86866    135.10706    405.65817            0     644.6339   -5994.8102   -31.145075      15.7932      15.7932      15.7932            0            0            0    945.18145   -3949.9538     1478.396    1987.2035    1884.6897   -483.04525 
   34000    3939.2215    387.64211   -4685.7832    338.55784   -590.06173   -251.50389   -520.69982    3.2687893    4745.1095   -1247.1291    126.46086    131.98006    398.62643            0    657.06735   -5995.5074   -31.145075      15.7932      15.7932      15.7932            0            0            0    3573.8347    919.95495    1112.2265   -2307.1781   -6956.9482   -4793.2233 
   35000    3939.2215    379.20131   -1398.3119    331.18584   -617.50249   -286.31665   -366.64898    4.7937343    4753.6551    -1237.748    94.679292    133.09604    392.47018            0    620.24551   -5996.1969   -31.145075      15.7932      15.7932      15.7932            0            0            0   -2405.1611    1504.8455   -2818.0354   -4436.1074   -1709.3622    1950.5339 
   36000    3939.2215     353.8539    5233.3307    309.04798   -601.40633   -292.35835    8.2939115    33.059145    4713.2474   -1243.4525     110.8298    129.33463     401.8817            0    642.04613    -5989.759   -31.145075      15.7932      15.7932      15.7932            0            0            0    688.32742     1724.048    3306.8586    5299.3482    5850.7925    4549.8514 
   37000    3939.2215    357.92005    3255.3771    312.59927   -584.37284   -271.77357   -84.753764    6.0640836     4757.239   -1233.4587    98.569268    150.24989    400.26669            0    649.08585   -5996.7618   -31.145075      15.7932      15.7932      15.7932            0            0            0   -2902.6285   -1419.1107    3015.5872   -2533.6614    3713.8718    8585.9209 
   38000    3939.2215     356.2374    1121.0153    311.12968   -640.79469   -329.66501   -265.26324   -8.4021178    4755.3802   -1249.8012    82.877655    124.27215    401.85669            0    609.00649   -5996.7793   -31.145075      15.7932      15.7932      15.7932            0            0            0   -2594.2115    661.43059   -1943.3594    869.83133    3311.2345   -818.02007 
   39000    3939.2215    393.90581    6273.9116    344.02841   -614.68386   -270.65545    89.777672    24.139618    4726.5275   -1237.7808    83.735733    136.29528    403.06592            0    623.09694   -5988.4479   -31.145075      15.7932      15.7932      15.7932            0            0            0   -252.25348    261.48822   -1244.9039     4395.652    3662.9768    10763.106 
   40000    3939.2215    397.03918    2020.8874    346.76502   -607.28145   -260.51643   -144.41744    -6.817222    4762.3531    -1239.285     86.84584    143.84715    401.31053            0    632.00351   -5994.8208   -31.145075      15.7932      15.7932      15.7932            0            0            0      -3323.4   -2758.5051   -1845.8248    4811.1874    3935.0407   -2683.5659 
   41000    3939.2215    368.47577   -3384.9476    321.81839   -593.54334   -271.72495   -466.18851    3.7520661    4742.9002   -1244.7687    118.97565    126.89823    405.35145            0    651.22532   -5991.4209   -31.145075      15.7932      15.7932      15.7932            0            0            0    1660.4888    968.21742    4500.8411   -6138.5306    -1961.245   -2055.0673 
   42000    3939.2215    369.72221   -4422.4398      322.907   -616.87617   -293.96917   -548.03615    -14.75155    4756.7664   -1253.5855    106.73474    135.03783     394.9368            0    636.70936   -5995.6004   -31.145075      15.7932      15.7932      15.7932            0            0            0    392.46338   -226.19375    883.44215   -2832.9997   -4630.7735   -5803.5462 
   43000    3939.2215    355.94469   -1326.0806    310.87403   -625.88335   -315.00932     -391.192   -2.1773296    4760.6394     -1237.46    91.747396    115.39073    404.43852            0    611.57665   -5995.9221   -31.145075      15.7932      15.7932      15.7932            0            0            0   -856.15531    5270.9748    541.14829   -1505.8264    1276.1786    -3748.594 
   44000    3939.2215    378.62134   -395.40342     330.6793   -622.62056   -291.94126   -314.65699    1.4776648    4746.0194   -1252.3196    107.46654    115.85008    406.38245            0    629.69907   -5999.8167   -31.145075      15.7932      15.7932      15.7932            0            0            0   -1067.2575   -1804.7334    315.17433    207.48825   -2105.5812    711.88268 
   45000    3939.2215    381.80504    920.77668    333.45987   -602.67542   -269.21555   -216.31739   -11.922629    4795.4656   -1209.4768    91.041041    118.65261    397.10775            0     606.8014   -5993.0198   -31.145075      15.7932      15.7932      15.7932            0            0            0   -3410.3472    3817.5692   -5999.6864    74.114075    -1804.283    4492.4989 
   46000    3939.2215    413.21238    17.226758    360.89033   -602.96642    -242.0761   -241.08643  0.062954492     4770.819   -1224.6587    103.59273    116.92592    401.17364            0    621.69229   -5995.5407   -31.145075      15.7932      15.7932      15.7932            0            0            0    1403.7185   -648.04096   -1100.7394    1300.5702    2235.3369   -3484.2268 
   47000    3939.2215    365.68374   -2008.1219    319.37989   -606.28396   -286.90406   -402.26967   -17.035406    4777.8817   -1233.7717    87.930314    145.20751    394.34988            0     627.4877    -5994.618   -31.145075      15.7932      15.7932      15.7932            0            0            0   -2125.8711    2071.8508    2413.6965     1949.954   -1193.7298     -6780.59 
   48000    3939.2215    365.73374   -4646.0064    319.42356    -607.4524   -288.02884   -554.93961   0.88505765    4733.6905   -1263.0465    106.56537    146.38428    402.64444            0    655.59409   -5997.6221   -31.145075      15.7932      15.7932      15.7932            0            0            0    501.06517    -1326.754   -1654.5198    -4282.389   -11738.217    2082.5871 
   49000    3939.2215    347.18686    945.67686    303.22514    -604.6662   -301.44106    -247.1124  -0.33904795    4752.2601   -1239.0588    89.933998    144.44285    400.01578            0    634.39263   -5990.9798   -31.145075      15.7932      15.7932      15.7932            0            0            0    1906.2238    1117.2481    1673.3149    3968.0535   -2160.7362    1029.7133 
   50000    3939.2215    363.77788   -81.959483    317.71536   -603.78563   -286.07027   -290.77881   -4.6891485    4747.5084   -1250.8104    99.318766     150.8037    396.90233            0    647.02479   -5993.6297   -31.145075      15.7932      15.7932      15.7932            0            0            0    2343.9293   -260.49174    4193.5969    3225.2516   -6004.2821    2533.1521 
   51000    3939.2215    345.24937    6977.4936    301.53298   -603.43549   -301.90251    98.951043    22.862749    4737.2696   -1236.7278    92.826448    141.56893    398.89689            0    633.29227   -5996.8602   -31.145075      15.7932      15.7932      15.7932            0            0            0    2280.8928   -26.331112   -70.155251    6087.6803    9131.2689    5713.5315 
   52000    3939.2215    388.32018    2553.0922    339.15005   -613.21974   -274.06968    -127.3958    22.661066    4733.0421   -1236.1337    98.358521    130.14001    394.41543            0    622.91396   -5991.8369   -31.145075      15.7932      15.7932      15.7932            0            0            0    433.55944    2687.3684    519.85827    341.51336    233.05609    7084.7072 
   53000    3939.2215    376.21896    6411.4963    328.58111   -592.39327   -263.81216    104.52513   -6.5196332    4766.6123   -1236.6587    95.663164    150.79202    397.81026            0    644.26545   -5996.7514   -31.145075      15.7932      15.7932      15.7932            0            0            0    1753.2538   -2726.0952    2485.5085    7344.8728    7387.5794    4502.0366 
   54000    3939.2215    370.70163   -53.215621     323.7624   -603.94414   -280.18174   -283.23895   -1.3314158    4767.1895   -1229.2212    104.59852    119.91474    400.76375            0    625.27701   -5995.0792   -31.145075      15.7932      15.7932      15.7932            0            0            0    1432.2298    3542.3108    1892.0168    4911.8387   -5959.8295    888.34394 
   55000    3939.2215    374.93608   -2724.0087    327.46068   -648.94074   -321.48006   -477.97301   -7.9215771    4733.5962   -1267.8709    93.492655    119.09243    406.34512            0     618.9302   -5993.5456   -31.145075      15.7932      15.7932      15.7932            0            0            0    1259.0097   -411.25489   -2124.0696   -2915.4759   -2910.8383   -2345.7119 
   56000    3939.2215    387.90378     422.3883    338.78637   -615.12882   -276.34245   -252.07645    11.635751    4731.7144   -1248.9173    108.91277    122.24602    402.62964            0    633.78843   -5992.2674   -31.145075      15.7932      15.7932      15.7932            0            0            0     2178.577    2201.5165    1597.2087    -3718.095    1663.7276    3321.5323 
   57000    3939.2215    396.90698     2325.535    346.64957   -583.76272   -237.11316   -103.51232    39.978971    4737.3235   -1217.7316     105.3266    119.89676    408.74556            0    633.96893   -5995.0341   -31.145075      15.7932      15.7932      15.7932            0            0            0   -1911.8186    184.47459   -2346.9152    1604.4722    5385.9245   -13.791868 
   58000    3939.2215     377.6991   -2048.5718    329.87383   -593.85161   -263.97778   -381.66721   -7.0025786    4751.5881   -1250.2597    115.27335     138.2595    402.87524            0    656.40809   -5994.8452   -31.145075      15.7932      15.7932      15.7932            0            0            0    -2999.229   -2292.5141    1245.7285   -1586.4797   -1294.1231   -3265.1126 
   59000    3939.2215    330.98367   -430.50963    289.07364   -629.70741   -340.63377   -365.36634    18.801248    4734.6358   -1244.0363    107.58325    120.58356    386.16204            0    614.32884   -5997.4733   -31.145075      15.7932      15.7932      15.7932            0            0            0    -3035.197   -2935.7763   -732.09588   -486.54894     -951.923    146.94305 
   60000    3939.2215    396.42392   -318.65665    346.22767   -593.77349   -247.54581   -265.85248    -9.774994    4773.7153   -1228.4862    95.876697    137.50209     401.3339            0    634.71269   -5992.4265   -31.145075      15.7932      15.7932      15.7932            0            0            0    6163.6525    42.649868   -2381.7527   -4993.2328    1959.9309     2077.332 
   61000    3939.2215    357.19917    567.71237    311.96966   -614.05194   -302.08227   -269.46748   -1.2746799    4751.2501   -1247.5242    102.66432    130.52247     400.2855            0     633.4723   -5997.4996   -31.145075      15.7932      15.7932      15.7932            0            0            0   -1775.9737    1367.0782    -3339.188    389.54288    91.772523    1221.8217 
   62000    3939.2215    377.15582    853.54042    329.39935   -634.16345   -304.76411   -255.72863    36.318048     4675.051   -1287.0514    102.62968    150.45905    399.79917            0     652.8879   -5998.4204   -31.145075      15.7932      15.7932      15.7932            0            0            0    3540.5771    302.71501    -1311.638   -1990.6386    6716.7312   -2165.4713 
   63000    3939.2215    386.32942    1119.2138    337.41136   -630.15036     -292.739   -228.44072    9.0493763    4708.3158   -1271.9648    103.38397    141.54627    396.88423            0    641.81446     -5989.33   -31.145075      15.7932      15.7932      15.7932            0            0            0   -3083.7694   -2128.4463    355.16869    1033.1029    3324.4421   -999.90367 
   64000    3939.2215    383.06245   -5633.7073    334.55807   -605.50104   -270.94297   -594.59667    -3.125131    4734.3309   -1264.7026    112.04893    144.26996    402.88266            0    659.20155   -5995.9084   -31.145075      15.7932      15.7932      15.7932            0            0            0   -1695.6193    993.24623   -1226.1048   -3672.2935   -7118.7231   -6110.1054 
   65000    3939.2215     369.7847    4201.2141    322.96158   -635.38858     -312.427   -71.069324    27.894364    4713.4184   -1254.8736    97.560489    122.09927    399.82523            0    619.48499   -5996.1863   -31.145075      15.7932      15.7932      15.7932            0            0            0    333.91435    148.26279    284.05293    5267.6419    3195.3964     4140.604 
   66000    3939.2215    375.58283    -358.3479    328.02553    -632.8541   -304.82857   -325.41548    6.1512715    4710.9701   -1280.1095    104.61934    143.60345    399.03259            0    647.25537   -5997.2308   -31.145075      15.7932      15.7932      15.7932            0            0            0    331.48654   -2838.1602    5484.4275     2528.669   -4091.2804     487.5677 
   67000    3939.2215    366.97287    2215.4666     320.5058   -623.24319    -302.7374   -175.45994    16.917887    4720.5258   -1257.3737    90.078425    141.13935    402.91272            0     634.1305   -5994.8173   -31.145075      15.7932      15.7932      15.7932            0            0            0   -556.39661   -556.20979    892.71956    5303.2503   -2189.7511    3532.9005 
   68000    3939.2215    397.34936    8768.8753    347.03593   -606.32975   -259.29382    244.47373   -1.1054853    4741.3182   -1253.3755    100.26533    147.79831    398.98207            0    647.04571   -5993.5882   -31.145075      15.7932      15.7932      15.7932            0            0            0     3755.559    729.78876     743.5781    8356.8016    15399.096    2550.7287 
   69000    3939.2215    364.06146    742.87393    317.96303   -631.03542   -313.07239   -270.39465    28.496986    4725.3995   -1241.9092    99.236082    116.00776    395.62992            0    610.87376   -5995.8056   -31.145075      15.7932      15.7932      15.7932            0            0            0    1368.2921   -1751.0951      431.109    1464.4963    1373.5052   -609.37972 
   70000    3939.2215     389.9799    3070.5896    340.59961   -561.92935   -221.32975    -44.92589     16.30505    4756.4498   -1219.6202     106.1155     157.5364    394.03899            0     657.6909   -5992.3751   -31.145075      15.7932      15.7932      15.7932            0            0            0    1233.9096    1886.4122    1152.9553    4993.3111    1567.2906    2651.1672 
   71000    3939.2215    359.39585   -3.5456765     313.8882   -628.24109    -314.3529   -314.55659    17.683723    4729.8796   -1246.4968    82.675896    132.04267    403.53714            0     618.2557   -5994.0602   -31.145075      15.7932      15.7932      15.7932            0            0            0    509.95264    3379.6518   -3390.6109    1667.2023   -4266.5375    2588.6982 
   72000    3939.2215    342.01603   -3393.8106    298.70905   -631.19637   -332.48732   -527.46006   -3.7556672    4736.0917    -1259.627    94.672191    132.13309     401.6253            0    628.43058    -5991.963   -31.145075      15.7932      15.7932      15.7932            0            0            0    585.67118    562.88988    1327.8289   -2007.9807   -7047.2628   -1126.1882 
   73000    3939.2215    360.04192    1091.9453    314.45246   -588.84094   -274.38848   -211.65676    26.722447    4726.6742   -1240.8632    99.745305    151.70043    400.57651            0    652.02225   -5994.2598   -31.145075      15.7932      15.7932      15.7932            0            0            0   -1562.9072   -2370.1373    2283.3933    7175.8759   -2966.2407   -933.79926 
   74000    3939.2215    369.73544    804.16774    322.91856   -591.04242   -268.12386   -221.92483   0.46908961    4774.6202    -1214.696    100.35864    129.96933    393.32559            0    623.65357   -5989.7852   -31.145075      15.7932      15.7932      15.7932            0            0            0    1588.0354    3126.0878   -3078.2741   -904.13747    696.98609    2619.6546 
   75000    3939.2215    359.26594   -714.44323    313.77473   -622.89134   -309.11661   -350.16102    21.981974    4733.6615   -1238.4396    84.851628    128.62037    402.07621            0    615.54821    -5994.083   -31.145075      15.7932      15.7932      15.7932            0            0            0    1438.5486    299.34112    -3163.459   -8610.6344    4298.9971    2168.3076 
   76000    3939.2215    371.05659    5428.1428    324.07242   -609.24265   -285.17024    26.673878    11.052018    4727.7737   -1257.9922    95.345934    157.81318    395.59041            0    648.74952   -5996.8179   -31.145075      15.7932      15.7932      15.7932            0            0            0   -3730.7301    250.05702    -1951.779    4810.9714    9116.0196    2357.4373 
   77000    3939.2215    394.20903   -442.15997    344.29323   -589.53506   -245.24182    -270.6437   -14.882831    4778.6679   -1233.7921    99.734663    149.37473    395.14764            0    644.25703   -5997.5771   -31.145075      15.7932      15.7932      15.7932            0            0            0   -3164.0497   -3983.7935    3279.8196   -2868.5154    1774.5073   -232.47185 
   78000    3939.2215      352.732     2047.857    308.06814   -613.16768   -305.09954   -187.45117    21.090798    4721.0581    -1248.683     109.4981    121.64492    404.37233            0    635.51535    -5990.832   -31.145075      15.7932      15.7932      15.7932            0            0            0    1952.2725   -3136.3175   -1526.4741    1513.4201   -2384.2605    7014.4113 
   79000    3939.2215    371.30031    2017.9468    324.28528   -629.64276   -305.35748   -189.42744    22.140472    4703.9434   -1270.0513    103.51861    138.93437    397.95554            0    640.40852   -5996.1352   -31.145075      15.7932      15.7932      15.7932            0            0            0   -2450.0356   -2361.3282    1648.5756    1332.1517    5061.0319   -339.34336 
   80000    3939.2215    366.56918   -279.69756    320.15322   -601.57117   -281.41795   -297.48644   -2.3428996    4734.3608   -1264.2515    113.03771    141.59401    408.04865            0    662.68037   -5996.2695   -31.145075      15.7932      15.7932      15.7932            0            0            0    2753.6368   -597.18675   -2331.9518    1041.9645   -918.52528   -962.53191 
   81000    3939.2215    342.57154    5083.8401    299.19422   -601.40339   -302.20917   -10.145067    25.560816    4723.2841   -1244.7451    95.554209    143.45976    404.32779            0    643.34176   -5993.5901   -31.145075      15.7932      15.7932      15.7932            0            0            0   -1123.2128   -2367.4917   -3278.7886     142.8395    10805.537    4303.1442 
   82000    3939.2215    346.66867   -36.594259    302.77257     -589.906   -287.13344   -289.23576    1.5320316    4760.5823    -1230.229    93.848232    144.08878    402.38599            0      640.323   -5992.3433   -31.145075      15.7932      15.7932      15.7932            0            0            0   -198.07692   -1729.1044    3355.4442   -3952.1356    4353.3113   -510.95847 
   83000    3939.2215    386.27093    4024.0621    337.36028   -619.76287    -282.4026   -51.222219    3.8919407    4729.1868   -1261.7363    103.42778     143.1401    395.40557            0    641.97344   -5994.8151   -31.145075      15.7932      15.7932      15.7932            0            0            0   -2438.9437   -2957.3363    -1336.376    7893.1514    1037.1591    3141.8759 
   84000    3939.2215    358.84892    2671.5244    313.41052   -646.75923   -333.34872   -179.87096   -12.273432    4737.0257   -1270.0909    89.434403    128.77215    405.12514            0    623.33169   -5994.8432   -31.145075      15.7932      15.7932      15.7932            0            0            0    2140.9473    -1148.033    28.049266    5907.2627    3817.5141   -1710.2035 
   85000    3939.2215    401.66809    273.37481    350.80781   -615.82554   -265.01772   -249.31247    -3.718724    4744.0695   -1252.1043    109.91009    121.09278    405.27586            0    636.27873    -5992.455   -31.145075      15.7932      15.7932      15.7932            0            0            0   -3016.2581    3272.6434    354.57035   -102.87163    1115.2136   -192.21753 
   86000    3939.2215    397.36492   -2233.3642    347.04952   -600.58309   -253.53357   -381.83923     33.68319    4703.1379     -1259.06    117.75006    141.36622     399.3606            0    658.47688   -5995.8811   -31.145075      15.7932      15.7932      15.7932            0            0            0    4037.9964    -4208.257   -1919.0785   -5311.8945   -3372.0102    1983.8121 
   87000    3939.2215    351.39833    1495.4563    306.90334   -603.11004    -296.2067   -210.29347   -17.627121    4789.5759   -1222.0927    98.618578    123.50033    396.86379            0    618.98269   -5994.0415   -31.145075      15.7932      15.7932      15.7932            0            0            0   -4036.4197    866.25479   -451.75748    3701.8056    572.23416    212.32926 
   88000    3939.2215    413.67764    2898.2427    361.29668   -590.43123   -229.13455   -62.631936   -10.034291      4774.11   -1228.3083    93.008471    141.84242    403.02621            0    637.87709    -5992.384   -31.145075      15.7932      15.7932      15.7932            0            0            0    2013.0406   -3636.1747   -1794.8371    5885.1521    5395.3244   -2585.7484 
   89000    3939.2215     383.3939   -3844.4365    334.84755   -621.83377   -286.98623    -507.8472   -10.121992    4763.0225   -1244.4279    98.334455    122.67388    401.58583            0    622.59417   -5997.3285   -31.145075      15.7932      15.7932      15.7932            0            0            0   -1969.8593   -1001.7976   -4498.6233   -6181.0892    448.56963   -5800.7899 
   90000    3939.2215    365.37518   -2887.3888    319.11041   -588.64074   -269.53033   -435.40938    4.4012693    4743.4255   -1249.1353     113.0353    147.48683    399.97243            0    660.49457   -5996.9621   -31.145075      15.7932      15.7932      15.7932            0            0            0    4188.3705    1740.1861    4003.5397   -3149.3024   -1441.5295   -4071.3343 
   91000    3939.2215    355.81318   -858.06803    310.75917   -614.29226   -303.53308   -352.82867    1.3529845    4768.4625   -1224.5505    82.890813    126.98776    400.37971            0    610.25828    -5994.366   -31.145075      15.7932      15.7932      15.7932            0            0            0    674.36386   -331.73184    3240.7563    1386.9599    807.79254   -4768.9565 
   92000    3939.2215    381.41433     1117.899    333.11864   -606.33901   -273.22037   -208.99763     6.957711    4716.7455   -1270.3808    118.09191    140.20141    405.74848            0    664.04181   -5994.0841   -31.145075      15.7932      15.7932      15.7932            0            0            0    45.068142    136.69542     6591.766   -4198.2529   -548.29176    8100.2417 
   93000    3939.2215     377.1185   -1143.0106    329.36675   -590.36261   -260.99586   -326.66125   -30.366042    4790.5995    -1231.137    101.92703    134.77159     404.0758            0    640.77442   -5991.3704   -31.145075      15.7932      15.7932      15.7932            0            0            0    3438.4056   -3963.0009    1468.0453    1247.6747   -4657.4061   -19.300183 
   94000    3939.2215    388.77432   -4439.2617    339.54668   -582.36414   -242.81746   -497.85085   -16.771266    4760.1322   -1253.2256    118.69651    151.49055    400.67444            0     670.8615   -5996.5866   -31.145075      15.7932      15.7932      15.7932            0            0            0    392.43711   -1372.6977    747.89517     608.4982   -11189.005   -2737.2779 
   95000    3939.2215     374.7203     581.2726    327.27222   -618.89568   -291.62346   -258.22963   -3.0479211    4757.2488   -1243.6574    107.06564    123.84527    393.85078            0    624.76169   -5997.8582   -31.145075      15.7932      15.7932      15.7932            0            0            0    22.813916   -2311.0054   -1967.1903    1782.5759    521.28813   -560.04624 
   96000    3939.2215    385.19455   -5120.9919    336.42019   -639.51532   -303.09513   -597.29358   -6.0778314    4729.8339   -1270.9992    106.17352    125.42608    399.88429            0    631.48389   -5994.7553   -31.145075      15.7932      15.7932      15.7932            0            0            0    1137.4769   -2556.1813   -5834.3752   -12965.774    252.99216   -2650.1937 
   97000    3939.2215    337.08972    5859.1306    294.40652   -608.69459   -314.28807    22.316085    29.106368    4730.4453   -1235.0056    110.92333    121.95482    393.43284            0    626.31099   -5994.5573   -31.145075      15.7932      15.7932      15.7932            0            0            0     530.5338    1878.3729    4495.0068    8627.8822    3189.3814    5760.1281 
   98000    3939.2215    381.55143   -3035.8301    333.23838   -608.28927   -275.05089   -449.45783    9.7072682    4733.5875   -1251.5047    105.19362    139.34237    398.67947            0    643.21546   -5994.7995   -31.145075      15.7932      15.7932      15.7932            0            0            0    1343.4155    1802.2589   -1519.9905   -5854.5603   -13551.514    10298.584 
   99000    3939.2215    382.90266   -2331.0138    334.41851   -620.18765   -285.76914   -419.68473   -10.751406    4767.0554   -1244.1501    88.787694    133.64623    401.52848            0    623.96241   -6000.4541   -31.145075      15.7932      15.7932      15.7932            0            0            0   -1881.7065    186.10511    1432.2205   -2401.7366   -1259.8148     -3331.49 
  100000    3939.2215    389.28281    1200.0312    339.99079   -598.05899    -258.0682   -189.12701   -38.964564    4787.0139   -1246.0554    111.08557    128.69416    408.21668            0     647.9964   -5994.1047   -31.145075      15.7932      15.7932      15.7932            0            0            0    139.79308   -1723.6595    1007.1887    1481.1382    1920.9173    198.03795 
  101000    3939.2215    369.82211    839.59974    322.99425   -632.88693   -309.89268   -261.65809   -5.8519362    4767.1269   -1235.7611     84.79498    120.05817    398.02102            0    602.87417   -5997.0361   -31.145075      15.7932      15.7932      15.7932            0            0            0    2407.1527   -5156.8642    1091.8902    1446.3566    3441.1387   -2368.6961 
  102000    3939.2215    407.67185    -4487.921    356.05136   -601.65275   -245.60138   -503.43023   -16.373559    4769.7387   -1243.5624    101.95353    132.95377    407.00234            0    641.90963   -5996.9275   -31.145075      15.7932      15.7932      15.7932            0            0            0    2027.4183   -721.94988   -1862.4998   -2206.8959   -7576.5724   -3680.2947 
  103000    3939.2215    378.80932   -141.25829    330.84348   -603.92739   -273.08391   -281.19913   -6.2639437    4761.4006   -1242.3008      104.727    129.86833    403.77806            0    638.37339   -5997.4374   -31.145075      15.7932      15.7932      15.7932            0            0            0    1927.4341   -2509.4932   -2654.9192    -4555.416   -53.425493    4185.0666 
  104000    3939.2215    399.58841   -2889.3917    348.99146    -600.0063   -251.01484   -417.00897    1.0458668    4752.3132   -1239.3764    104.88332    131.95226    402.53449            0    639.37008   -5992.7355   -31.145075      15.7932      15.7932      15.7932            0            0            0   -4411.9567   -1193.6772    -8606.332   -6262.9336   -4027.0354    1621.7939 
  105000    3939.2215    356.62197   -3862.5376    311.46555   -624.57822   -313.11268   -535.01355   -3.0591989    4741.8436   -1259.3074    106.18477    132.28277     396.2616            0    634.72915   -5998.0918   -31.145075      15.7932      15.7932      15.7932            0            0            0    2577.6474    4691.4027    2287.1761   -4816.7566   -5694.9792   -1075.8771 
  106000    3939.2215    370.85863    3876.6604    323.89952   -618.70126   -294.80174   -72.089513   -8.7607996    4762.9669    -1244.409      96.3701    135.67277     393.6649            0    625.70777   -5998.6151   -31.145075      15.7932      15.7932      15.7932            0            0            0   -1889.0193    6127.2662    1641.8577    4535.1318    3462.8358    3632.0136 
  107000    3939.2215    377.29016    3580.9591    329.51668      -614.04   -284.52332   -78.798992    1.0752471    4751.5344   -1241.7416    94.350852     133.9783    399.37243            0    627.70159   -5994.3512   -31.145075      15.7932      15.7932      15.7932            0            0            0    -981.5528    3250.7725    1305.7371    3766.2216    2147.4784    4829.1773 
  108000    3939.2215    374.58279     3725.678    327.15212   -611.14701   -283.99489   -69.956529    18.605854     4724.451   -1249.8785    91.289046    140.67026     406.7722            0    638.73151   -5992.9354   -31.145075      15.7932      15.7932      15.7932            0            0            0   -659.10823    2207.4165   -636.15403    9616.6269    1461.6215    98.785503 
  109000    3939.2215    401.50151    2356.6683    350.66233     -601.337   -250.67467   -115.28525    29.277262    4750.8286   -1216.6055    91.525021    125.15082    398.59266            0     615.2685   -5996.7114   -31.145075      15.7932      15.7932      15.7932            0            0            0    701.70239    3326.4266    2811.0762    2811.2177    2572.6119    1686.1752 
  110000    3939.2215    357.95291   -4066.8755    312.62797    -602.4363   -289.80834   -523.44832   -9.9174304    4752.1554   -1245.3799    101.42138    139.84811    401.67412            0    642.94362   -5987.6179   -31.145075      15.7932      15.7932      15.7932            0            0            0    2641.5625   -4577.2465    853.61524   -2020.0255   -4782.2485   -5398.3526 
  111000    3939.2215    349.97565   -706.78577     305.6608   -601.05236   -295.39156   -335.99605    18.148573    4744.5129   -1233.4237    104.35795    124.40475    403.60865            0    632.37135   -5996.0852   -31.145075      15.7932      15.7932      15.7932            0            0            0   -1009.6924   -2926.7533    1642.5887   -403.76588   -118.56442    -1598.027 
  112000    3939.2215    401.13462   -313.74288    350.34189   -595.33658   -244.99469   -263.01907     27.65108    4728.8382   -1237.1514    120.11203    126.09445    395.60834            0    641.81482   -5993.6406   -31.145075      15.7932      15.7932      15.7932            0            0            0   -3225.2966    721.29293    1902.1266   -2666.2589    264.35087    1460.6794 
  113000    3939.2215    371.97489    3081.6304    324.87445   -601.86077   -276.98633   -99.948188    12.750786     4757.628   -1219.4375    101.59239    123.70753    392.27683            0    617.57676   -5989.8164   -31.145075      15.7932      15.7932      15.7932            0            0            0    1434.8439   -1654.1367    -1105.249    1233.8503    2845.4371    5165.6037 
  114000    3939.2215    339.77014    1142.1578    296.74754   -628.31163   -331.56409   -265.94768    10.046321    4732.1261   -1251.3822    84.322686    137.36099    401.38689            0    623.07057   -5993.5546   -31.145075      15.7932      15.7932      15.7932            0            0            0    2212.6497    2071.4649   -3252.7374    672.42495    291.49078    2462.5578 
  115000    3939.2215     399.2181   -7560.8069    348.66805   -610.89521   -262.22716   -696.59178   -6.5368184    4744.0837   -1257.7385    108.50525    138.46495    399.87305            0    646.84325   -5995.2853   -31.145075      15.7932      15.7932      15.7932            0            0            0    5914.3037    979.55299    2833.6848   -9052.6923   -5042.7437   -8586.9847 
  116000    3939.2215    367.24736    2008.2818    320.74553   -570.44346   -249.69793   -134.32314    1.3743407    4777.1041   -1213.7851    110.58706    134.30198    398.45263            0    643.34166   -5992.2636   -31.145075      15.7932      15.7932      15.7932            0            0            0    1082.1482   -426.25955    514.97109    2611.9766    4062.8724   -650.00373 
  117000    3939.2215    383.93163    636.53946    335.31719   -612.56928    -277.2521   -240.68322   -17.783725    4766.8301   -1249.3953    110.90131    123.54611    402.37858            0      636.826   -5998.4416   -31.145075      15.7932      15.7932      15.7932            0            0            0    2744.0456   -2185.6179    2760.8901   -4101.1425    1865.5912    4145.1697 
  118000    3939.2215    377.83075    2097.2446    329.98882   -612.59748   -282.60866   -162.12299    13.406452    4744.0429   -1236.3782    90.205724    134.11034    399.46469            0    623.78076   -5993.8276   -31.145075      15.7932      15.7932      15.7932            0            0            0    442.77009    3966.8249   -1339.8913    5056.3729    -1226.539    2461.8999 
  119000    3939.2215    399.51925   -3886.2202    348.93106   -613.26956   -264.33851   -487.59993    12.665438    4714.9656   -1263.1422    102.00097    144.36616    403.50549            0    649.87262   -5990.7732   -31.145075      15.7932      15.7932      15.7932            0            0            0    754.74241   -3087.2371    109.91553   -2975.6162   -13998.832    5315.7878 
  120000    3939.2215    380.46465   -942.38823    332.28921   -609.52897   -277.23976    -331.3795   -12.987124    4754.0849   -1250.7146    102.91951    139.42809    398.83799            0     641.1856   -5991.8123   -31.145075      15.7932      15.7932      15.7932            0            0            0    3454.5803    5422.3103   -3763.0079    6944.0321   -8295.6529   -1475.5439 
  121000    3939.2215    351.26874    -1495.726    306.79016   -582.16583   -275.37566   -361.30438   -13.009619      4795.62    -1213.694    110.41425    120.37205     400.7419            0     631.5282   -5996.3044   -31.145075      15.7932      15.7932      15.7932            0            0            0   -1919.5681    18.079339    2163.9173    -2551.922   -518.67305   -1416.5829 
  122000    3939.2215    368.42274    5364.4271    321.77208   -573.84931   -252.07723    56.106449    25.623207     4730.617   -1236.3266    117.29532    138.95374    406.22825            0    662.47732   -5992.5669   -31.145075      15.7932      15.7932      15.7932            0            0            0    128.12045    1721.6414   -3732.5931     4906.808    7726.0799    3460.3934 
  123000    3939.2215    344.69938   -3767.4072    301.05263   -599.50562   -298.45299   -514.88867    5.7121164    4758.1118   -1233.8179    97.575441     139.6804    397.05647            0    634.31232   -5997.6419   -31.145075      15.7932      15.7932      15.7932            0            0            0    245.59121    2847.0769    245.96294   -3880.9223   -1714.8706   -5706.4286 
  124000    3939.2215    395.23317   -5344.2038     345.1877   -579.18657   -233.99887   -541.02074    10.165606    4733.5021   -1251.6249    128.83892    136.93657    406.66288            0    672.43837   -5995.2926   -31.145075      15.7932      15.7932      15.7932            0            0            0   -5670.7806   -2998.4269   -3519.5889   -3947.8823   -6858.1002    -5226.629 
  125000    3939.2215    382.61236    2619.1859    334.16496    -622.3601   -288.19514    -137.7242     13.29796    4703.5029   -1276.2049    104.91299    147.63726    401.29456            0    653.84482   -5993.0057   -31.145075      15.7932      15.7932      15.7932            0            0            0    701.68865   -633.27955   -1979.9222    1726.3713    5507.9818     623.2045 
  126000    3939.2215    371.54187   -2222.3284    324.49625   -605.13209   -280.63584   -408.30751    4.0729735    4745.2611   -1247.1261    109.54871    131.28641    401.15887            0    641.99399   -5996.4602   -31.145075      15.7932      15.7932      15.7932            0            0            0   -4038.3783     736.5588   -155.91558    -6023.364    3172.6438   -3816.2649 
  127000    3939.2215    371.76848   -208.06538    324.69416   -611.47553   -286.78136   -298.73462    -12.69438    4753.5923   -1250.4397    99.656633    137.77486    401.53272            0    638.96422   -5991.3376   -31.145075      15.7932      15.7932      15.7932            0            0            0     4968.632    798.05089    897.36613   -968.21091    3635.3399   -3291.3251 
  128000    3939.2215    377.26116   -1067.0459    329.49135   -614.74693   -285.25558   -346.55684    12.328459    4741.6668   -1240.7757    93.485422    131.59785    400.94551            0    626.02878    -5994.771   -31.145075      15.7932      15.7932      15.7932            0            0            0    4084.8367    -1808.011     1973.475   -756.71439   -2750.3983    305.97509 
  129000    3939.2215    386.60733   -1794.4689    337.65408   -604.55392   -266.89984   -369.99119   -4.0310553    4767.2339   -1234.4195    100.14971    125.98178    403.73414            0    629.86562   -5997.6224   -31.145075      15.7932      15.7932      15.7932            0            0            0   -1971.6213    874.62804    -396.5889   -5362.3798    1038.1508   -1059.1778 
  130000    3939.2215    359.88381    317.32052    314.31436   -626.15661   -311.84225   -293.61234     -4.45704    4760.9326   -1244.8067    86.780364    129.83006    402.03963            0    618.65006   -6001.2823   -31.145075      15.7932      15.7932      15.7932            0            0            0    941.45449    553.58157   -2509.3646   -1195.0979    519.53789    1627.5216 
  131000    3939.2215    408.85974    836.10148    357.08883   -613.47573    -256.3869   -208.35329   -5.9347688    4756.6147   -1243.3768    91.011259    135.66386    403.22599            0    629.90111   -5994.0567   -31.145075      15.7932      15.7932      15.7932            0            0            0   -1460.7932   -2.8682418   -1557.4234   -5182.9697    7324.2178    367.05637 
  132000    3939.2215    333.64585   -2713.0697    291.39872   -619.54388   -328.14515   -484.00967   -26.199745    4775.6114   -1244.1522    87.004242    133.27592    404.32811            0    624.60827   -5993.5638   -31.145075      15.7932      15.7932      15.7932            0            0            0   -1142.7574   -1751.2615   -1222.9494   -4646.2612    1183.9845   -4676.9324 
  133000    3939.2215    375.57094   -3150.8895    328.01515   -593.81887   -265.80372   -446.82077   -2.5078068    4765.9944   -1230.8412    102.06637     135.5524    399.40356            0    637.02233   -5994.3278   -31.145075      15.7932      15.7932      15.7932            0            0            0    1378.2885    4811.5528    1876.8301   -1251.2768   -4807.7143   -3393.6775 
  134000    3939.2215    405.00678    94.102943    353.72375   -612.83343   -259.10968   -253.70351   -26.241212    4772.2663   -1241.5567    78.364539    156.45426     393.9045            0     628.7233   -5987.5818   -31.145075      15.7932      15.7932      15.7932            0            0            0   -3697.5892    1268.8071    3819.7893    7477.7449   -1817.7936   -5377.6425 
  135000    3939.2215    378.90118   -1253.8989    330.92371   -620.72938   -289.80567   -361.84155    31.590257    4710.0131   -1255.1802    94.349703    136.24766    403.85348            0    634.45084   -5996.7836   -31.145075      15.7932      15.7932      15.7932            0            0            0   -3422.2791   -315.28118    3403.3572   -4300.5443    376.52625    162.32123 
  136000    3939.2215    348.45567    960.77453    304.33329   -630.86138   -326.52809   -271.33207   -5.9856369    4727.5713   -1273.0082    93.125998    151.02136    397.99942            0    642.14678   -5994.5938   -31.145075      15.7932      15.7932      15.7932            0            0            0   -1283.4898    909.01596   -4536.3165    2058.7261   -3397.5619    4221.1594 
  137000    3939.2215    367.83135   -2532.6943    321.25557   -592.75767    -271.5021   -417.00414   -8.0370492    4763.2158   -1238.3498    104.19793    141.35282    400.04136            0    645.59211   -5993.5285   -31.145075      15.7932      15.7932      15.7932            0            0            0    464.64142   -761.02056    2218.3691   -2019.4904   -4633.2006   -945.39191 
  138000    3939.2215     369.7137    1256.2864    322.89957   -591.84278   -268.94321   -196.77018    22.810037    4709.8582   -1266.2173     112.7989    160.35982    401.21581            0    674.37453   -5998.8856   -31.145075      15.7932      15.7932      15.7932            0            0            0     1711.666   -942.12592   -1196.5094    2140.0281   -490.62436    2119.4554 
  139000    3939.2215    367.82204    1261.6505    321.24744   -603.19139   -281.94396   -209.46276    -11.10332    4763.9445   -1239.3245    92.981179    148.22228    394.92964            0     636.1331   -5992.1657   -31.145075      15.7932      15.7932      15.7932            0            0            0   -1441.6743    1760.5643    748.42342    6888.7672   -3986.9542    883.13851 
  140000    3939.2215    368.27066    652.51693    321.63926   -611.56416   -289.92491   -252.43813     21.52561    4719.3047   -1253.3837    107.33979    125.73117    408.74858            0    641.81954    -5994.214   -31.145075      15.7932      15.7932      15.7932            0            0            0    2299.9348   -3586.3297    4226.0575   -253.69345    918.23742    1293.0068 
  141000    3939.2215    374.81297    2850.3836    327.35316   -573.79733   -246.44417   -82.691044     1.230131     4741.224   -1247.0055    112.52489    158.31452    402.36871            0    673.20812   -5989.4596   -31.145075      15.7932      15.7932      15.7932            0            0            0    2063.0088    3395.1546    4448.8435    6998.9785     323.7503    1228.4221 
  142000    3939.2215    358.44924    1835.5441    313.06145   -596.21885   -283.15741    -177.7063    12.678446     4731.217   -1250.7138    99.030778    149.71825    405.74595            0    654.49498   -5994.6093   -31.145075      15.7932      15.7932      15.7932            0            0            0   -2023.5172   -2574.1034    -192.8852    4821.7884   -2504.5237    3189.3677 
  143000    3939.2215     356.8769    1431.3037     311.6882   -587.15982   -275.47161   -193.24392    14.753222    4750.0869   -1228.4403    98.241317    146.51584    396.52335            0    641.28051   -5993.2805   -31.145075      15.7932      15.7932      15.7932            0            0            0    1774.1409    712.14874   -429.37604    3272.7658    498.45206    522.69331 
  144000    3939.2215    366.84857   -1453.3969    320.39723   -594.84933    -274.4521   -357.94903     14.94368    4725.1688   -1249.2841    107.42029    146.33918    400.67534            0     654.4348   -5989.3966   -31.145075      15.7932      15.7932      15.7932            0            0            0    728.21944    975.47162    2181.4995    4136.6058   -5024.9201   -3471.8766 
  145000    3939.2215    363.34214   -1433.5776    317.33479   -608.05215   -290.71736   -373.07568    8.1689429    4722.0982   -1266.6032    117.58564    138.94008    402.02538            0    658.55109   -5996.8704   -31.145075      15.7932      15.7932      15.7932            0            0            0   -598.54581   -703.45964    133.14062   -4811.1725   -143.54046    653.98005 
  146000    3939.2215    385.58385   -2134.3062     336.7602    -631.2906   -294.53041   -417.14524    9.3009197    4720.0857   -1264.0412    101.05662    134.28397    397.41002            0    632.75061   -5993.4278   -31.145075      15.7932      15.7932      15.7932            0            0            0    4109.5466   -4320.9473   -1961.0097   -5310.7002   -2912.3121    1820.0937 
  147000    3939.2215    384.55736   -1509.7814    335.86368   -607.74997   -271.88629   -358.62248   -11.764767     4784.048    -1229.159    104.20974    119.45854    397.74072            0      621.409   -6001.4422   -31.145075      15.7932      15.7932      15.7932            0            0            0     1741.813   -1565.9217   -1318.1935   -2885.1248   -1819.4192    175.19991 
  148000    3939.2215    362.34198   -2073.8648    316.46127   -616.59365   -300.13238   -419.27489    -14.08515    4757.7098   -1251.9485    104.62927    126.77231    403.95326            0    635.35483   -5995.5731   -31.145075      15.7932      15.7932      15.7932            0            0            0    4820.6016   -764.39927    -3823.619    877.86221   -2416.4325   -4683.0242 
  149000    3939.2215    386.84988   -2127.6663    337.86592   -632.29761   -294.43168   -416.66506   -3.2619696    4736.0311   -1263.4469        98.12     131.7014    401.32789            0     631.1493   -5996.2161   -31.145075      15.7932      15.7932      15.7932            0            0            0    -1761.516   -3096.1627    1423.6416    308.87503   -3211.9782   -3479.8957 
  150000    3939.2215    381.02571    -1900.469    332.77922   -606.57443    -273.7952   -382.97621   -12.912369    4755.8555    -1254.122    106.13309    139.21392    402.20051            0    647.54753   -5997.0651   -31.145075      15.7932      15.7932      15.7932            0            0            0   -2712.1627    2308.9092     1173.109    1806.9218   -2912.9536   -4595.3752 
  151000    3939.2215     387.5178    2730.8812    338.44927   -588.60318   -250.15391   -93.266134     6.877118    4750.0778   -1238.9676    104.06483    144.68462    401.61499            0    650.36444   -5995.9225   -31.145075      15.7932      15.7932      15.7932            0            0            0    -4496.325    1733.2367   -2300.8787    1197.4682    1906.8359    5088.3396 
  152000    3939.2215    400.33887    2342.2575     349.6469   -614.26965   -264.62274   -130.06121    21.441949    4716.0813   -1257.4591    95.669042    146.34053    401.17992            0    643.18949   -5994.9824   -31.145075      15.7932      15.7932      15.7932            0            0            0   -78.631218    1792.7044   -1682.5582    4493.5593    3052.1641   -518.95088 
  153000    3939.2215    385.03031    2811.9634    336.27675   -628.79522   -292.51847   -130.97256    7.8277368    4738.4911   -1246.5838    90.165319    128.21161    399.41167            0     617.7886   -5992.9026   -31.145075      15.7932      15.7932      15.7932            0            0            0    105.23279    1795.6718    2784.5972    3252.2561    6148.8444   -965.21028 
  154000    3939.2215    390.24699   -1996.7323    340.83288   -580.90087   -240.06798   -354.77927   -11.010581    4782.0081   -1222.9004    98.444691    142.82538    400.72943            0    641.99951   -5993.8978   -31.145075      15.7932      15.7932      15.7932            0            0            0   -1806.3969      1918.16   -4472.6664    2825.6953   -7234.3771   -1581.5151 
  155000    3939.2215      379.018    202.13669    331.02573    -584.6713   -253.64557   -242.03292   -6.9457564    4798.2957   -1204.0507    83.828209    137.39296    398.15823            0     619.3794   -5995.4006   -31.145075      15.7932      15.7932      15.7932            0            0            0    934.37502    -1795.321    3889.7442     -720.103   -1113.5065    2440.0196 
  156000    3939.2215    382.12191    -1953.634    333.73662   -588.90911    -255.1725    -367.4078    -24.16685    4772.9653   -1242.5118    97.642484     150.8009    405.15928            0    653.60267   -5991.3103   -31.145075      15.7932      15.7932      15.7932            0            0            0     1310.715    1377.9634    1276.2374   -3968.7284    1428.1935   -3320.3671 
  157000    3939.2215    344.26534     3814.195    300.67355    -586.0674   -285.39385   -66.270236   -16.589948    4752.1413   -1251.0506    105.75076    158.59161    400.64082            0    664.98319   -5986.6019   -31.145075      15.7932      15.7932      15.7932            0            0            0     1573.422   -2413.8595    3094.4334     3955.473    11981.897   -4494.7849 
  158000    3939.2215    374.94174   -1515.6962    327.46562    -595.9389   -268.47329   -355.54928   -14.854695     4781.088   -1228.8295    90.026423    133.31241    409.55181            0    632.89065   -5995.0629   -31.145075      15.7932      15.7932      15.7932            0            0            0   -2909.6792   -4916.2985    4402.6829    1620.8587    -2644.013   -3523.9343 
  159000    3939.2215    358.87076    2391.9643    313.42959   -599.07495   -285.64536   -148.22819    7.1750068    4751.5274   -1234.9114    99.331226       136.11    400.39521            0    635.83644   -5993.6138   -31.145075      15.7932      15.7932      15.7932            0            0            0   -39.817685   -754.65146    1534.3011     7937.233    2032.8936   -2794.2337 
  160000    3939.2215    372.91368    -3926.461    325.69436   -594.50964   -268.81528   -494.38852   -8.5119461    4763.5257   -1238.6777    102.51868    145.43122    396.21813            0    644.16804   -5993.6914   -31.145075      15.7932      15.7932      15.7932            0            0            0    3359.9164    1322.8503   -801.47662    -1990.349   -5252.9136   -4536.1205 
  161000    3939.2215    383.26724   -2147.8681    334.73693    -592.2311   -257.49418   -380.88813   -34.885612    4800.1657   -1231.0695    92.503081    140.79869    405.53662            0    638.83839   -5996.3496   -31.145075      15.7932      15.7932      15.7932            0            0            0    -1222.061   -2676.8089   -487.95187   -3769.5801    3069.8936   -5743.9178 
  162000    3939.2215    390.63515    4981.1787    341.17189   -566.66225   -225.49036    60.675896    30.281492    4749.3793   -1215.4856    112.10196    133.45296    403.26841            0    648.82334   -5995.1463   -31.145075      15.7932      15.7932      15.7932            0            0            0    2901.5231    2914.9988    1683.9922    7032.2089    1522.1478    6389.1795 
  163000    3939.2215     392.4168   -318.79879    342.72794   -600.70918   -257.98124   -276.29607    20.829526    4707.0453   -1263.3336    103.90237    151.97245    406.74957            0    662.62439   -5991.2084   -31.145075      15.7932      15.7932      15.7932            0            0            0    1593.1883   -646.25194     2045.911   -741.16381    100.90582   -316.13839 
  164000    3939.2215    361.53853    3382.8376    315.75956   -602.03908   -286.27951   -91.937164    8.5018762    4739.5227   -1243.1097    101.85148    135.66396    403.55521            0    641.07065   -5991.1343   -31.145075      15.7932      15.7932      15.7932            0            0            0    117.74932    1924.5167    87.517791    1012.8633    5630.0087    3505.6408 
  165000    3939.2215    335.14387   -1032.5681    292.70707   -627.54672   -334.83965   -394.16018   0.28155293    4730.9838   -1261.5578     86.07707    144.22272    403.71134            0    634.01112   -5992.8232   -31.145075      15.7932      15.7932      15.7932            0            0            0    5313.6992   -2094.9095    4498.1296   -51.007319   -1111.1811   -1935.5158 
  166000    3939.2215    352.83764    -5040.396     308.1604   -606.00915   -297.84875   -587.41701    24.477063    4719.6199   -1249.9632    114.08876    129.30819    400.55707            0    643.95402   -5994.0601   -31.145075      15.7932      15.7932      15.7932            0            0            0   -6468.0402    1225.0413    1520.8866   -8693.9974   -3722.8327    -2704.358 
  167000    3939.2215    366.84872   -3026.8817    320.39736   -597.53321   -277.13585   -451.02871    13.434362    4702.8699   -1277.4405    114.88505    152.58527    412.43697            0    679.90729   -5993.7448   -31.145075      15.7932      15.7932      15.7932            0            0            0   -2148.1561    2690.8909    284.52374   -3086.6693    406.94282   -6400.9187 
  168000    3939.2215    349.05514     -1729.86    304.85685   -601.81372   -296.95687   -396.33647     4.126897     4740.482   -1251.1186    99.406358    150.52957      399.369            0    649.30493   -5995.7276   -31.145075      15.7932      15.7932      15.7932            0            0            0   -763.98024    6086.5795    2722.9043   -3901.1463    1111.1364     -2399.57 
  169000    3939.2215    395.59721    2169.6796    345.50564    -612.0949   -266.58926   -141.94224    1.1165574    4755.4164   -1240.8449    95.809835     139.8977    393.04247            0    628.75001   -5997.3778   -31.145075      15.7932      15.7932      15.7932            0            0            0    1780.6752   -2172.3951    2736.4155    616.61039    4346.8357    1545.5927 
  170000    3939.2215    357.86033    3637.0671    312.54711    -614.8545   -302.30739   -93.359685  -0.39577908    4749.4078   -1246.0504    97.604517    133.96001    399.63142            0    631.19595   -5995.0624   -31.145075      15.7932      15.7932      15.7932            0            0            0   -1369.7658   -306.15883   -205.73283    4942.5728    3837.4296    2131.1989 
  171000    3939.2215    383.13207   -1949.2444    334.61887   -611.35033   -276.73146   -388.71458   -8.8068151    4764.5403   -1237.6954    85.846637    147.91098    392.58745            0    626.34506   -5993.4289   -31.145075      15.7932      15.7932      15.7932            0            0            0    948.05968   -2536.2807   -27.832684    1946.8274   -2681.4646   -5113.0959 
  172000    3939.2215    400.51128   -2307.7228    349.79748   -586.26991   -236.47244   -369.04997   -3.7845405    4795.6347   -1199.8977     98.09415    117.09815    398.43546            0    613.62776   -5991.7479   -31.145075      15.7932      15.7932      15.7932            0            0            0    1168.0912   -185.98076   -1100.7468   -7244.0334   -845.09442    1165.9594 
  173000    3939.2215    350.39845   -27.172793    306.03007   -594.39012   -288.36005   -289.92111    18.804369    4757.4803   -1212.8889    88.339384    133.70724    396.45219            0    618.49881   -5989.1736   -31.145075      15.7932      15.7932      15.7932            0            0            0    2341.0286   -377.63671   -1848.3103    437.11106    -1002.656    484.02659 
  174000    3939.2215    374.56239   -3024.7263     327.1343    -598.6586    -271.5243   -445.29333  -0.97433249    4731.1667    -1255.394    97.287226    148.33741    411.11075            0    656.73539   -5985.5863   -31.145075      15.7932      15.7932      15.7932            0            0            0   -2621.8516    -3195.059    1381.5744   -2657.2168   -4492.8679   -1924.0942 
  175000    3939.2215    377.66602   -462.97313    329.84495   -572.98012   -243.13517   -269.73275   0.44309904    4784.8281   -1203.1618    93.158393     132.5085    404.51477            0    630.18167    -5988.433   -31.145075      15.7932      15.7932      15.7932            0            0            0    1346.1638   -3190.7588     -2463.33     3454.446    -4983.905    140.53959 
  176000    3939.2215    349.74485   -3456.0068    305.45923   -614.87921   -309.41998   -507.96586   -4.4804055      4752.91   -1246.0079    92.296594    133.61592    405.21619            0     631.1287   -5994.4375   -31.145075      15.7932      15.7932      15.7932            0            0            0      673.434   -1423.5492   -1544.7275   -2760.1647    -6603.458   -1004.3978 
  177000    3939.2215    356.10109    2711.0609    311.01063   -589.94648   -278.93585   -123.18674    25.097649    4740.8947   -1227.6918    95.417773    148.22354    394.10404            0    637.74535   -5993.6842   -31.145075      15.7932      15.7932      15.7932            0            0            0    1694.0788    2468.7317   -144.89852    5059.3659    1021.7406    2052.0761 
  178000    3939.2215    382.32747   -1882.3623    333.91615   -619.43996   -285.52381   -393.66459   -8.2712474    4778.3363   -1224.8106    89.668521    115.61119     400.0909            0    605.37061   -5994.8756   -31.145075      15.7932      15.7932      15.7932            0            0            0    -766.0066    746.99044   -4674.5148    1742.3188   -1042.0703   -6347.3354 
  179000    3939.2215    360.98547    3255.8913    315.27653   -591.35335   -276.07683   -89.027481    11.783345    4755.3284   -1229.0272    107.65855    132.31686    397.69841            0    637.67383   -5996.1389   -31.145075      15.7932      15.7932      15.7932            0            0            0    2231.6337    1354.2334    7064.7808    -1465.268    3906.1914    7326.7505 
  180000    3939.2215    382.89254    3181.0653    334.40967   -627.66011   -293.25044   -110.49981    16.357799    4725.9951   -1254.7517    86.264645    128.15673    412.67019            0    627.09156   -5997.1046   -31.145075      15.7932      15.7932      15.7932            0            0            0   -431.66089    273.40735   -5298.1765    654.40755    2339.4765    6549.3117 
  181000    3939.2215    378.87999   -1533.8842     330.9052   -607.73279   -276.82759   -364.94848    28.532592    4705.3561   -1258.4742    102.15903    151.22348    397.35888            0     650.7414   -5992.3628   -31.145075      15.7932      15.7932      15.7932            0            0            0     1160.278    2157.2885    1731.8669   -4393.6585   -6023.7185    5815.7243 
  182000    3939.2215    366.98412   -1018.3494    320.51562   -607.65815   -287.14253    -345.6462    17.144065    4725.7018   -1247.3594    86.122562    148.61425    404.96448            0    639.70129   -5990.2053   -31.145075      15.7932      15.7932      15.7932            0            0            0    3528.8127    400.74665    102.99465     2173.397    4735.9151   -9964.3603 
  183000    3939.2215    344.07491     133.7085    300.50723   -619.94212   -319.43489    -311.7534   -14.865906    4779.3288   -1227.0799    86.542341    117.09726     403.4982            0     607.1378   -5991.5428   -31.145075      15.7932      15.7932      15.7932            0            0            0   -700.79877    3991.3421   -2245.8231   -3323.8363    125.95974    3599.0021 
  184000    3939.2215     342.4086   -3358.2214    299.05192   -588.29735   -289.24543   -482.17359   -7.8646585    4756.6913   -1237.9564    95.371377    147.14702    407.14061            0      649.659    -5986.783   -31.145075      15.7932      15.7932      15.7932            0            0            0     161.1716     2618.682    3699.3309   -3433.6039   -8940.0791    2299.0189 
  185000    3939.2215    382.40918    518.01612    333.98752   -592.45988   -258.47237    -228.7126    5.4103036    4778.2817   -1207.0561    99.612586    115.78419    399.19944            0    614.59621   -5990.7481   -31.145075      15.7932      15.7932      15.7932            0            0            0    4851.2045    4506.4014    909.57368   -2744.1358    3520.7362    777.44796 
  186000    3939.2215    404.19689    2585.2268     353.0164   -642.36227   -289.34586   -140.82586   -0.6089397    4753.2486   -1243.4374     86.31974    118.48479    396.27059            0    601.07512    -5996.077   -31.145075      15.7932      15.7932      15.7932            0            0            0   -3606.6784    92.672715   -1623.1173    3938.6668    2098.1795    1718.8341 
  187000    3939.2215    374.49047   -4595.7381    327.07149   -616.60509    -289.5336   -553.55649     10.51123    4733.8692   -1252.2265    101.67991    129.70965    404.23183            0    635.62139   -5996.6069   -31.145075      15.7932      15.7932      15.7932            0            0            0    1485.8211   -52.385682   -328.71313   -4308.1454   -1758.5309   -7720.5381 
  188000    3939.2215    365.96001    195.68722    319.62118   -581.88393   -262.26275   -251.02062    10.650381    4749.4415   -1233.0762    98.648654    150.98608    401.55756            0     651.1923   -5993.1682   -31.145075      15.7932      15.7932      15.7932            0            0            0   -4037.6511   -795.73707    401.78345   -457.44532    199.88334    844.62363 
  189000    3939.2215    368.36574    3540.2051    321.72229   -611.91543   -290.19314   -86.810103   -12.560319    4749.3132   -1252.7628    91.447205    148.89263    400.50752            0    640.84735   -5989.5156   -31.145075      15.7932      15.7932      15.7932            0            0            0    2930.1747    357.86945    2911.5416    1383.0006    3430.5809    5807.0338 
  190000    3939.2215    406.60994    2640.7252    355.12391   -627.11077   -271.98686    -120.2785    29.936396    4701.1546   -1266.7674     100.1781    148.12103    391.35749            0    639.65663   -5997.8584   -31.145075      15.7932      15.7932      15.7932            0            0            0      887.633   -518.09753    2050.8946    4497.1001    519.91945     2905.156 
  191000    3939.2215    380.80037    1787.8814    332.58241   -616.74868   -284.16627   -181.45337   -10.159759    4767.0321   -1238.5594    74.473778    153.59717    393.73981            0    621.81076   -5995.4318   -31.145075      15.7932      15.7932      15.7932            0            0            0   -4002.7798   -2076.1791   -611.79096    2092.6052    -559.1466    3830.1855 
  192000    3939.2215    365.57572   -971.89611    319.28555   -595.04709   -275.76154   -331.59649    15.626877    4765.6707   -1213.2425    92.341186    117.30492    408.54931            0    618.19542   -5994.5401   -31.145075      15.7932      15.7932      15.7932            0            0            0    909.96771       1124.5    2030.6144   -4463.4855    207.21194    1340.5852 
  193000    3939.2215    368.17344    3406.2943    321.55434   -605.30512   -283.75078   -88.060856   -11.350777    4790.9162   -1211.4299    82.649981    126.56902    396.90578            0    606.12479   -5990.9954   -31.145075      15.7932      15.7932      15.7932            0            0            0    3324.2995    517.00606    1509.7881    9110.1333   -5043.3596    6152.1092 
  194000    3939.2215    340.70391   -6589.9963    297.56308   -607.61427    -310.0512   -688.64323   -15.503536    4769.8697   -1238.4864    100.83131    120.08808    409.95271            0     630.8721   -5992.8525   -31.145075      15.7932      15.7932      15.7932            0            0            0    1320.9464    788.58026    3542.7339   -7187.6287   -3612.3416   -8970.0187 
  195000    3939.2215    366.12306    3487.9632    319.76358    -615.3641   -295.60051   -95.218753   -15.428037    4787.0111   -1218.8518    71.610559    132.18667    399.69043            0    603.48767   -5990.4349   -31.145075      15.7932      15.7932      15.7932            0            0            0    97.194998   -1963.0898   -1376.6074   -378.89751    6649.8183    4192.9688 
  196000    3939.2215      386.396    959.05197    337.46951   -620.53528   -283.06577   -227.96871   -15.184404    4739.9341   -1267.9497    96.946213    145.68171    404.78646            0    647.41438   -5992.6994   -31.145075      15.7932      15.7932      15.7932            0            0            0     2297.222    3283.0258    3294.4506    3423.8004    4771.9455     -5318.59 
  197000    3939.2215    431.22683     -1079.36    376.62375   -607.38206   -230.75831   -292.76701    -16.83838    4769.6721   -1235.9325     98.69848    135.37515    394.47683            0    628.55047   -5988.7662   -31.145075      15.7932      15.7932      15.7932            0            0            0   -2676.2738    1703.4793    1173.7677    3479.0382   -3801.4386   -2915.6795 
[...]
 9955000    3939.2215    377.81874   -7.8506445    329.97833   -639.59108   -309.61275   -310.06377     26.36104    4696.2208    -1274.409    106.07786    137.53985     391.2002            0    634.81791   -5996.9908   -31.145075      15.7932      15.7932      15.7932            0            0            0    -1660.242    3533.1216    1359.7842    1367.9591    2035.2116   -3426.7226 
 9956000    3939.2215    351.65493    1873.3144    307.12745   -630.35528   -323.22783   -215.60684     30.82198    4717.6592   -1249.1968    99.493897    126.90741    392.44019            0    618.84149    -5997.678   -31.145075      15.7932      15.7932      15.7932            0            0            0     780.5953   -4613.4111     2465.174    669.92333    1818.3307     3131.689 
 9957000    3939.2215    362.58182   -3329.6237    316.67075   -623.78104   -307.11029   -498.39552   -11.915158    4746.9109   -1260.4045    109.33455    126.20108     401.0878            0    636.62344   -5995.4002   -31.145075      15.7932      15.7932      15.7932            0            0            0    2521.7264   -2571.5354    2962.8442   -1071.4871   -7903.1142   -1014.2697 
 9958000    3939.2215    411.20379    312.39413    359.13608   -606.99607      -247.86   -229.91311    7.5504874    4746.9408   -1235.7533     90.88969    133.05451    404.81302            0    628.75722   -5990.2446   -31.145075      15.7932      15.7932      15.7932            0            0            0    4102.1992    3625.5792    2734.5401    2102.3261    936.03335   -2101.1771 
 9959000    3939.2215    394.96696    5033.8282     344.9552   -611.83856   -266.88336    22.307584    20.792118    4726.9711   -1248.4768    99.929261    133.82308    402.88588            0    636.63822     -5996.24   -31.145075      15.7932      15.7932      15.7932            0            0            0    2078.9578     1154.159     4227.052    6976.3959    5901.1256    2223.9633 
 9960000    3939.2215    375.49649    687.78193    327.95012   -610.08478   -282.13466   -242.62193    17.957205    4749.6712   -1230.9864    100.87568    121.46079    398.56513            0     620.9016   -5998.6148   -31.145075      15.7932      15.7932      15.7932            0            0            0   -2156.9725    1744.5691    345.43653   -4438.6572    4777.2807    1724.7223 
 9961000    3939.2215     391.7398    -1013.978    342.13667   -635.05397    -292.9173   -351.16984   -20.964704    4759.4105   -1251.8386    89.121221    123.64694    404.01646            0    616.78461   -5990.2844   -31.145075      15.7932      15.7932      15.7932            0            0            0    3488.7482    1119.1976    1010.0707    2668.1005   -4745.4396   -964.59509 
 9962000    3939.2215    371.18581   -1460.7845    324.18527   -615.66084   -291.47557   -375.39691   -26.125935    4775.8881    -1247.524    97.311509    129.12989    405.42177            0    631.86317   -5997.2862   -31.145075      15.7932      15.7932      15.7932            0            0            0   -2359.6421     400.2772    325.12945   -158.24475    1438.4644    -5662.573 
 9963000    3939.2215    405.99531   -5629.9852    354.58711   -587.69033   -233.10323    -556.5431   -19.915978    4761.1174   -1252.5592    123.88827    137.39386    403.58673            0    664.86886   -5993.7606   -31.145075      15.7932      15.7932      15.7932            0            0            0    867.99188    4220.1318     3189.013   -3374.5022   -7206.2829   -6309.1706 
 9964000    3939.2215    372.85944    2885.6905    325.64699   -601.66943   -276.02245   -110.24095    15.221543    4718.4304   -1264.6094    110.38221    158.83589    393.72183            0    662.93993   -5998.2613   -31.145075      15.7932      15.7932      15.7932            0            0            0   -3157.5623    196.09525    -2993.301    937.98877   -387.50529     8106.588 
 9965000    3939.2215    396.21569    3715.8096     346.0458   -605.04237   -258.99657   -45.525142    10.484337    4754.2011     -1235.12    99.270744    136.66087    394.14602            0    630.07763   -5999.8055   -31.145075      15.7932      15.7932      15.7932            0            0            0   -804.25488   -2919.0474    1603.1784   -905.63714    4059.5967    7993.4692 
 9966000    3939.2215    403.14741   -361.44527    352.09982   -618.21362    -266.1138   -286.87866    9.8626786     4739.146   -1248.9512     110.3122    124.16696    396.25846            0    630.73761   -5997.9599   -31.145075      15.7932      15.7932      15.7932            0            0            0    25.028356   -273.59321    1365.5518    464.85834   -3909.4971     2360.303 
 9967000    3939.2215    368.81505    322.41589    322.11471   -607.69875   -285.58403    -267.0614    8.2369632    4709.4707   -1278.0766    121.75209    151.68822    396.93749            0     670.3778   -5995.7842   -31.145075      15.7932      15.7932      15.7932            0            0            0    5069.2785    1287.3461   -1027.7773    -4396.457    3791.6925    1572.0121 
 9968000    3939.2215    383.39322    3005.4924    334.84695   -605.84666   -270.99971   -98.335654    22.362626    4703.2284   -1271.4531    110.48379    157.30239    397.82027            0    665.60644   -5997.0441   -31.145075      15.7932      15.7932      15.7932            0            0            0   -2039.1013   -2188.3252   -1084.8117    3424.0442    2585.3089    3007.1242 
 9969000    3939.2215    352.33093   -680.58151    307.71785   -641.62949   -333.91164   -373.01071    27.521169    4681.2517   -1286.9801    96.423037    139.44472    409.48291            0    645.35066    -5995.753   -31.145075      15.7932      15.7932      15.7932            0            0            0   -2571.6404    1762.8424    3739.2104   -3176.4899    2284.4011   -1149.6558 
 9970000    3939.2215    379.30067   -115.92769    331.27262   -592.98502   -261.71241   -268.37239   -2.3478374    4768.3193    -1229.851    109.78024    131.69705    395.38864            0    636.86594   -5995.8224   -31.145075      15.7932      15.7932      15.7932            0            0            0   -1870.2101    2923.6561    1612.2167    487.79796    4815.5151   -5651.0961 
 9971000    3939.2215    398.09055    3817.2664    347.68327   -596.77907    -249.0958   -29.795733    24.808405    4718.2618   -1248.3782    111.84652      140.488    399.26465            0    651.59917   -5991.4484   -31.145075      15.7932      15.7932      15.7932            0            0            0    2769.4679   -1408.6046    1546.7962    4671.3173    5536.4261    1244.0557 
 9972000    3939.2215    393.06281    1350.5188    343.29216   -604.01562   -260.72346   -183.13682    33.659802    4712.0626   -1248.8487    97.751806    141.14532    405.93597            0     644.8331   -5994.5711   -31.145075      15.7932      15.7932      15.7932            0            0            0   -330.27829    375.51746   -415.29312    5245.5906    -1126.105   -67.929124 
 9973000    3939.2215    345.29157   -2229.9348    301.56984   -593.65855   -292.08871   -420.19736    34.440767    4707.2569   -1254.2511    118.49557    141.39765    400.69935            0    660.59258   -5995.9488   -31.145075      15.7932      15.7932      15.7932            0            0            0   -740.06697    3724.2716   -111.42085     3543.429   -6574.4213   -3658.8119 
 9974000    3939.2215    383.29521    2530.6818    334.76135   -587.49767   -252.73632    -107.3499     14.24174     4743.016   -1238.0763    99.994879    143.34534    407.23838            0     650.5786    -5995.334   -31.145075      15.7932      15.7932      15.7932            0            0            0    3187.4338   -1984.7217    2722.2907     2843.715    6010.2256   -1261.8951 
 9975000    3939.2215    370.37235     4225.313    323.47482   -617.90148   -294.42666    -51.68452   -19.683125    4759.0893   -1254.1891    106.84472    127.55084    401.89208            0    636.28764   -5993.5953   -31.145075      15.7932      15.7932      15.7932            0            0            0   -152.16472    1137.3113   -2449.4139    3338.1813    7950.8106    1386.9471 
 9976000    3939.2215    365.05504    2736.4125     318.8308   -598.60774   -279.77694    -122.5714    14.739259    4741.7398   -1239.3337     104.4798    132.23848    404.00771            0    640.72598   -5995.8128   -31.145075      15.7932      15.7932      15.7932            0            0            0    2602.4076     102.1498   -59.575381    6122.3147    1613.1685    473.75435 
 9977000    3939.2215    363.60541    -1862.746    317.56473   -631.33433    -313.7696   -420.78344   -14.171205    4749.3195   -1259.9472    123.81833    105.96729     398.8272            0    628.61282   -5995.0955   -31.145075      15.7932      15.7932      15.7932            0            0            0    -6243.406   -46.264144   -339.33742   -2189.4821   -3398.9729   0.21702807 
 9978000    3939.2215    372.50192    1490.2766    325.33474   -602.59427   -277.25953   -191.64388   -7.0147453    4747.4386   -1251.7444     112.1222    134.61268    402.41525            0    649.15012   -5992.1683   -31.145075      15.7932      15.7932      15.7932            0            0            0    5282.7694    244.40464    1567.2331    4476.9153   -1979.4585    1973.3729 
 9979000    3939.2215     373.3577   -6553.7904    326.08216   -597.03969   -270.95753   -647.46955   -5.8616759    4728.4241   -1275.1774    123.21246    152.37962    402.54566            0    678.13774   -5997.7399   -31.145075      15.7932      15.7932      15.7932            0            0            0   -445.14409    438.78838    2575.0677    -9980.542   -5183.0365   -4497.7926 
 9980000    3939.2215    394.93586    4353.0097    344.92804   -583.76817   -238.84013    11.238122    7.4841721    4733.8217   -1254.2007    118.43616    152.32922    399.66715            0    670.43253   -5995.5066   -31.145075      15.7932      15.7932      15.7932            0            0            0    2868.7996    2172.9162   -1572.7666    1325.5078    2293.2785    9440.2427 
 9981000    3939.2215    392.43084   -1355.4953    342.74021    -594.4532   -251.71299   -329.58553    6.0084916    4739.7225   -1251.0798    113.79776    146.25163    396.57723            0    656.62662   -5996.8108   -31.145075      15.7932      15.7932      15.7932            0            0            0   -1282.0881    955.49775   -7764.5089    1618.4026   -2389.1107   -3295.7777 
 9982000    3939.2215    366.80886    248.01036    320.36255   -636.16643   -315.80389   -301.55581    11.395089    4720.3185   -1264.5469     102.6043    136.40596     389.3702            0    628.38047   -5996.2605   -31.145075      15.7932      15.7932      15.7932            0            0            0    1327.8603    270.69475    2153.2813   -1294.3175    298.27945    1740.0691 
 9983000    3939.2215    360.03606    3077.7668    314.44734   -585.64477   -271.19744   -94.381256    7.3643481    4758.2263   -1227.6421    109.56122    136.67293    395.76318            0    641.99733   -5993.2328   -31.145075      15.7932      15.7932      15.7932            0            0            0   -2642.5658    414.60857   -3278.1966   -4120.8875      11785.1     1569.088 
 9984000    3939.2215    393.32688   -2716.7129    343.52279   -615.19185   -271.66906   -427.74287   -8.0547513    4754.1926   -1251.1621    108.12025    124.16175    403.68828            0    635.97028   -5997.2999   -31.145075      15.7932      15.7932      15.7932            0            0            0    1180.1923   -1615.4368   -3343.4364   -579.14408    -11293.33    3722.3354 
 9985000    3939.2215    392.90155    -3546.232    343.15131   -621.62789   -278.47658   -482.20585   -6.8726358    4735.8701   -1266.9188    119.89873     131.0714     394.3208            0    645.29093   -5995.9163   -31.145075      15.7932      15.7932      15.7932            0            0            0   -2464.1451   -1571.8982    100.23943   -3499.7237    -1823.253   -5315.7194 
 9986000    3939.2215    341.82912   -2565.4996    298.54581   -584.70647   -286.16067   -433.54735    1.6292373    4760.5693   -1235.0244    116.83511    123.89043    409.59235            0    650.31789   -5997.2229   -31.145075      15.7932      15.7932      15.7932            0            0            0     1108.313    4426.0753   -989.60344   -4020.2496   -1765.7128   -1910.5363 
 9987000    3939.2215    363.31076    7236.9038    317.30739   -615.32551   -298.01812    117.73843    7.8577507    4751.5177   -1239.8223    93.748906    131.68574    399.06215            0    624.49679   -5999.1977   -31.145075      15.7932      15.7932      15.7932            0            0            0   -477.11394   -2102.0757   -6198.6375    7336.8175    7820.0582    6553.8357 
 9988000    3939.2215    376.56895   -2393.6309    328.88679   -604.53666   -275.64987   -413.16279    4.2166219    4740.7114   -1252.0016    101.11829    141.26877    405.07785            0    647.46491   -5996.9296   -31.145075      15.7932      15.7932      15.7932            0            0            0   -1494.5855   -1989.6877    664.90318   -4458.8683   -2104.0904   -617.93414 
 9989000    3939.2215    354.80219   -1507.4305     309.8762   -618.56275   -308.68655   -395.28769    12.218837    4742.4735   -1245.4974    108.16311    113.05681    405.71475            0    626.93468   -6000.1898   -31.145075      15.7932      15.7932      15.7932            0            0            0      -774.01    2205.7753   -1574.7978    1239.1137   -5696.8445   -64.560805 
 9990000    3939.2215    353.87547    3480.9246    309.06682   -586.87248   -277.80566   -77.828268   -1.7935902    4754.5002   -1238.9051    97.517754    143.92937    410.58545            0    652.03257   -5991.6117   -31.145075      15.7932      15.7932      15.7932            0            0            0     995.0842    1260.3658   -2878.7623    755.41089    5492.5548    4194.8081 
 9991000    3939.2215    381.64455   -454.42596    333.31971   -604.77405   -271.45434   -297.56089   -2.3053748    4752.5406   -1242.0762    95.203967    137.76147     404.3367            0    637.30213   -5992.3114   -31.145075      15.7932      15.7932      15.7932            0            0            0   -2328.5258   -1504.8464    5052.1741    198.98576   -1312.9755   -249.28816 
 9992000    3939.2215    374.67783    1689.0719    327.23513   -622.80596   -295.57083   -198.53449   -10.079547    4757.9838   -1250.0041    87.624252    133.63699    405.93689            0    627.19812   -5997.9084   -31.145075      15.7932      15.7932      15.7932            0            0            0    1340.9017    1950.1035   -965.37438    6670.3356   -1919.0491    315.92909 
 9993000    3939.2215    362.35735   -2542.1351     316.4747   -648.88748   -332.41277   -478.45718   -9.1454741    4729.9197   -1275.2898    107.45942     121.1297     397.8132            0    626.40232   -5996.0641   -31.145075      15.7932      15.7932      15.7932            0            0            0   -2508.4701   -633.90011    -70.26119   -3204.3276    -2386.237   -2035.8408 
 9994000    3939.2215    345.36342   -2566.6998    301.63259    -589.9435   -288.31091   -435.76654   -11.312325    4770.6274   -1241.6235      117.419    131.21427    403.04674            0       651.68   -6000.9386   -31.145075      15.7932      15.7932      15.7932            0            0            0   -913.20211    4047.8807   -803.69457   -2483.7362    692.03064   -5908.3939 
 9995000    3939.2215    368.15233    742.65272    321.53591   -580.89429   -259.35838   -216.69335   -15.462861    4764.5059   -1250.2732    113.74363    151.19909    404.43614            0    669.37887   -5999.3162   -31.145075      15.7932      15.7932      15.7932            0            0            0   -5352.4026   -2745.6157   -714.20273    3689.4739   -2996.8851    1535.3693 
 9996000    3939.2215    399.17835    1166.6534    348.63332   -632.20455   -283.57123   -216.54757    6.7331993    4723.7931   -1267.8574    103.36611    135.20078    397.08592            0     635.6528   -5998.3837   -31.145075      15.7932      15.7932      15.7932            0            0            0    2720.8845   -846.45759    1139.7611   -2583.7701    4461.3379    1622.3924 
 9997000    3939.2215    341.12208    2618.9104    297.92829   -587.29501   -289.36672   -138.91161    41.466714    4696.8724   -1258.7879    107.57103    164.62998    399.29187            0    671.49289    -5997.127   -31.145075      15.7932      15.7932      15.7932            0            0            0    1003.0144   -570.51607    4176.1959    2928.4479     3968.824    959.45925 
 9998000    3939.2215    391.59402    -1686.418    342.00934   -602.38701   -260.37767   -357.26155    8.3506985    4734.3986   -1256.6683    106.48976    143.18581    404.60577            0    654.28133   -5999.4176   -31.145075      15.7932      15.7932      15.7932            0            0            0   -1686.4512   -845.25015    1608.8584   -2570.3475    1058.3355    -3547.242 
 9999000    3939.2215    335.59077    3990.5285    293.09738   -596.27027   -303.17289   -73.918999   -1.4703387    4755.3325   -1239.9293    114.24619     135.7344     393.6784            0    643.65899   -5993.7914   -31.145075      15.7932      15.7932      15.7932            0            0            0   -6252.6524    3609.7737    -999.0202    2879.3329    3291.4454    5800.8073 
10000000    3939.2215    369.38391    188.79981    322.61154   -620.75699   -298.14545     -287.299    -1.282408    4744.1072   -1254.4782    106.68375    130.18358    396.85391            0    633.72125    -5997.303   -31.145075      15.7932      15.7932      15.7932            0            0            0   -3331.0038    850.62541    1651.0715   -3245.8345     343.9328    3468.3011 
Loop time of 5254.57 on 4 procs for 10000000 steps with 294 atoms

Performance: 164.428 ns/day, 0.146 hours/ns, 1903.106 timesteps/s
93.0% CPU use with 4 MPI tasks x 1 OpenMP threads

MPI task timing breakdown:
Section |  min time  |  avg time  |  max time  |%varavg| %total
---------------------------------------------------------------
Pair    | 1299.1     | 1446.9     | 1572       | 260.2 | 27.54
Bond    | 124.7      | 125.52     | 126.32     |   7.1 |  2.39
Kspace  | 2543.5     | 2669.6     | 2817.3     | 193.0 | 50.81
Neigh   | 160.35     | 160.72     | 161.08     |   2.6 |  3.06
Comm    | 714.92     | 720.13     | 724.85     |  14.5 | 13.70
Output  | 4.122      | 4.1777     | 4.3316     |   4.4 |  0.08
Modify  | 54.602     | 57.39      | 60.568     |  34.3 |  1.09
Other   |            | 70.12      |            |       |  1.33

Nlocal:    73.5 ave 84 max 63 min
Histogram: 1 0 1 0 0 0 0 1 0 1
Nghost:    1651 ave 1705 max 1591 min
Histogram: 1 0 0 0 0 1 1 0 0 1
Neighs:    8358 ave 10837 max 5975 min
Histogram: 1 0 0 1 0 0 1 0 0 1

Total # of neighbors = 33432
Ave neighs/atom = 113.714
Ave special neighs/atom = 4.87755
Neighbor list builds = 415554
Dangerous builds = 0


write_restart   restart.${NAME}
write_restart   restart.mol
PPPM initialization ...
  using 12-bit tables for long-range coulomb (src/kspace.cpp:332)
  G vector (1/distance) = 0.3803
  grid = 12 12 12
  stencil order = 5
  estimated absolute RMS force accuracy = 0.0233741
  estimated relative force accuracy = 7.03904e-05
  using double precision KISS FFT
  3d grid and FFT values/proc = 3211 432
write_data	data.*
PPPM initialization ...
  using 12-bit tables for long-range coulomb (src/kspace.cpp:332)
  G vector (1/distance) = 0.3803
  grid = 12 12 12
  stencil order = 5
  estimated absolute RMS force accuracy = 0.0233741
  estimated relative force accuracy = 7.03904e-05
  using double precision KISS FFT
  3d grid and FFT values/proc = 3211 432
Total wall time: 1:27:35
