LAMMPS data file via write_data, version 3 Mar 2020, timestep = 10000000

341 atoms
8 atom types
274 bonds
5 bond types
389 angles
8 angle types
420 dihedrals
6 dihedral types

0.0000000000000000e+00 1.6907299999999999e+01 xlo xhi
0.0000000000000000e+00 1.6920700000000000e+01 ylo yhi
0.0000000000000000e+00 1.6929800000000000e+01 zlo zhi

Masses

1 6.941
2 16
3 19
4 12.01
5 32.06
6 14.01
7 16
8 1.008

Pair Coeffs # lj/cut/coul/long

1 0.0182661 2.126
2 0.209859 2.96
3 0.0609584 3.118
4 0.109326 3.4
5 0.249833 3.564
6 0.169886 3.25
7 0.155323 3.165
8 0 0

Bond Coeffs # harmonic

1 492.67 1.466
2 363.556 1.344
3 248.733 1.782
4 256.929 1.752
5 529.23 1.012

Angle Coeffs # harmonic

1 41.2526 108.48
2 45.27 121.88
3 43.0716 107.06
4 81.1647 109.67
5 71.2115 107.16
6 39.3938 103.12
7 109.646 119.18
8 37.9249 113.24

Dihedral Coeffs # charmm

1 0.143897 3 0 0
2 0.143897 3 0 0
3 0.499666 3 180 0
4 6.79545 1 180 0
5 0.499666 3 180 0
6 6.79545 1 180 0

Atoms # full

220 28 2 -4.6100000000000002e-01 3.8407363380497488e+00 2.9279541428184848e+00 2.6360561372834450e+00 0 0 0
222 28 3 -1.3800000000000001e-01 2.2022371534716414e+00 1.4686781594298963e+00 4.5955181741345950e+00 0 0 0
187 26 2 -4.6100000000000002e-01 9.0150023658733336e-01 8.1508704932335174e+00 7.4738657168835099e+00 0 0 -2
223 28 4 3.1900000000000001e-01 3.2965028302991879e+00 2.0591616293713031e+00 5.1608460822657580e+00 0 0 0
221 28 3 -1.3800000000000001e-01 3.9230922976676483e+00 1.3532043349882357e+00 6.1593933977223596e+00 0 0 0
219 28 5 9.1100000000000003e-01 4.5310182876500233e+00 2.3569257307422955e+00 3.8038841784988526e+00 0 0 0
224 28 3 -1.3800000000000001e-01 2.9591782559186837e+00 3.1556813070757777e+00 5.8074453229861840e+00 0 0 0
51 17 6 -5.8799999999999997e-01 4.1961736363907880e+00 6.1040225280478175e+00 2.5329084379753746e+00 1 -1 -1
59 17 3 -1.3800000000000001e-01 1.5268747640455158e+00 4.5264706465291669e+00 2.9946486828990295e+00 1 -1 -1
54 17 5 9.1100000000000003e-01 2.7170737472188602e+00 6.5616059318824238e+00 1.7074883174686668e+00 1 -1 -1
265 42 8 4.0999999999999998e-01 2.2929304922963025e+00 7.9428874799104925e+00 5.8907828434210288e+00 4 -2 0
55 17 2 -4.6100000000000002e-01 2.9552345804161511e+00 6.9842558139635980e+00 3.7641009332584602e-01 1 -1 -1
52 17 2 -4.6100000000000002e-01 2.3015024304441343e+00 7.6358007447957492e+00 2.6027403535493798e+00 1 -1 -1
307 56 8 4.0999999999999998e-01 1.2836597087871740e-01 3.0388154674395333e+00 2.2866521669552489e+00 -1 1 4
264 42 7 -8.1999999999999995e-01 3.2782319390682764e+00 7.9891154655528993e+00 5.8350175391293888e+00 4 -2 0
216 28 6 -5.8799999999999997e-01 5.2637834599360493e+00 1.0175053833999466e+00 3.0156605567667287e+00 0 0 0
274 45 8 4.0999999999999998e-01 2.5437964319237207e+00 6.8420368501512852e-01 1.2499583272517183e+00 -3 -2 3
58 17 4 3.1900000000000001e-01 1.6016682488181184e+00 5.1652008827806162e+00 1.8041667862310622e+00 1 -1 -1
56 17 3 -1.3800000000000001e-01 1.9065611019037800e+00 4.2545252887583027e+00 8.4638293125050357e-01 1 -1 -1
57 17 3 -1.3800000000000001e-01 4.0462009863793563e-01 5.6862924509130650e+00 1.4466481859319833e+00 1 -1 -1
40 16 2 -4.6100000000000002e-01 8.3693763402001320e-01 3.5127771048935528e+00 7.4884770417033932e+00 0 -1 -2
273 45 7 -8.1999999999999995e-01 2.1294270814801144e+00 1.2271753076843792e+00 4.2147253422880809e-01 -3 -2 3
260 40 8 4.0999999999999998e-01 9.5121280714735201e-01 8.1061873712403330e+00 3.7241931840258711e+00 4 1 -2
338 66 8 4.0999999999999998e-01 4.8145165931074505e+00 1.8396999041455118e+00 1.0255569094946793e+00 3 -1 0
1 1 1 8.0000000000000004e-01 4.7416039394197078e+00 7.1730005132016830e+00 4.4951656573567247e+00 0 -3 -3
258 40 7 -8.1999999999999995e-01 1.1774149976557992e-01 8.1630529952433140e+00 4.2658603314418526e+00 4 1 -2
322 61 8 4.0999999999999998e-01 5.6086521982341013e+00 8.0945095215689527e-03 7.8161920335365220e+00 1 -1 -3
336 66 7 -8.1999999999999995e-01 5.1000018382235810e+00 1.8028185126375220e+00 7.1182892188961677e-02 3 -1 0
275 45 8 4.0999999999999998e-01 1.2198380867327290e+00 8.8144073859402639e-01 4.5239397976826368e-01 -3 -2 3
110 21 3 -1.3800000000000001e-01 9.1782075801794107e+00 7.8750067178478167e+00 6.9216967708223613e+00 1 -1 1
124 22 2 -4.6100000000000002e-01 1.0478232198113639e+01 5.7543458036537154e-01 4.9850338457899159e+00 0 -2 1
107 21 4 3.1900000000000001e-01 8.9609818406342985e+00 7.3270522326268184e+00 8.0699236520543050e+00 1 -1 1
334 65 8 4.0999999999999998e-01 8.2150420301260567e+00 1.0184211457811014e+00 1.1296485915723555e+00 1 -1 0
127 22 2 -4.6100000000000002e-01 6.9103128834626277e+00 1.2067965536814040e+00 7.4236897113947569e+00 0 -2 1
232 31 8 4.0999999999999998e-01 7.4218566255428007e+00 6.0555187301033282e+00 5.2448335902432346e+00 0 -1 -1
217 28 2 -4.6100000000000002e-01 5.7127659470171279e+00 3.0156612546023331e+00 4.3665645184415363e+00 0 0 0
233 31 8 4.0999999999999998e-01 6.0164683061505908e+00 5.2093681736744362e+00 5.0737809598755677e+00 0 -1 -1
231 31 7 -8.1999999999999995e-01 6.3663526712725140e+00 6.1686600331158070e+00 5.3188895781287711e+00 0 -1 -1
120 22 2 -4.6100000000000002e-01 8.0626714672208770e+00 1.3977852772486148e+00 4.9407835755956198e+00 0 -2 1
45 17 2 -4.6100000000000002e-01 6.1460507415344106e+00 7.1668698471815890e+00 1.6143122281875848e+00 1 -1 -1
333 65 7 -8.1999999999999995e-01 7.5372888294080038e+00 1.6832443412645275e+00 1.4336742194803302e+00 1 -1 0
49 17 2 -4.6100000000000002e-01 6.3584936592221508e+00 4.7073812456464754e+00 2.2903864523488844e+00 1 -1 -1
48 17 5 9.1100000000000003e-01 5.6586025581118991e+00 5.7831625159235456e+00 1.6085440545839340e+00 1 -1 -1
12 12 1 8.0000000000000004e-01 7.6280805496762385e+00 3.1756709299849262e+00 3.1891974981140443e+00 2 0 0
60 18 2 -4.6100000000000002e-01 8.6853541957505893e+00 4.5213756488923735e+00 4.4981692432488432e+00 0 0 1
63 18 5 9.1100000000000003e-01 9.9232020230524522e+00 4.7235396027943759e+00 3.7453672845967625e+00 0 0 1
61 18 3 -1.3800000000000001e-01 1.0633716826128721e+01 7.0689618190527037e+00 4.8397540203598357e+00 0 0 1
126 22 6 -5.8799999999999997e-01 9.4811528179437818e+00 1.2687861428776517e+00 7.1620377879227926e+00 0 -2 1
66 18 6 -5.8799999999999997e-01 9.4151965281876926e+00 4.1799647093589014e+00 2.0847044114968662e+00 0 0 1
129 22 5 9.1100000000000003e-01 8.1122131143867335e+00 1.3925130805430181e+00 8.1778990028079246e+00 0 -2 1
62 18 4 3.1900000000000001e-01 1.0276886034819158e+01 6.4738353779077533e+00 3.6334121152872689e+00 0 0 1
335 65 8 4.0999999999999998e-01 6.8036189299143492e+00 1.0456298939316455e+00 1.8086289295236562e+00 1 -1 0
65 18 3 -1.3800000000000001e-01 9.1023315616653342e+00 7.1603538813709466e+00 3.2722247676135003e+00 0 0 1
70 18 2 -4.6100000000000002e-01 1.0425653556273746e+01 2.0233207984229047e+00 1.4835453084065187e+00 0 0 1
64 18 2 -4.6100000000000002e-01 1.1115139465871664e+01 4.0672068498480023e+00 4.1958886268333142e+00 0 0 1
69 18 5 9.1100000000000003e-01 1.0661237728428580e+01 3.4007268510742530e+00 1.1040262059115513e+00 0 0 1
134 22 3 -1.3800000000000001e-01 7.8190627343888508e+00 3.9775133777628007e+00 7.6371585545785843e+00 0 -2 1
123 22 5 9.1100000000000003e-01 9.1146023310446171e+00 5.7434552431734043e-01 5.6226626295456734e+00 0 -2 1
68 18 3 -1.3800000000000001e-01 1.1225919352297177e+01 6.7400246795625129e+00 2.6790756582316777e+00 0 0 1
113 21 3 -1.3800000000000001e-01 7.8051667204078070e+00 6.7116347124111266e+00 7.9627043468424290e+00 1 -1 1
106 21 3 -1.3800000000000001e-01 9.9583364204501610e+00 6.4297688106099624e+00 8.3138884129731352e+00 1 -1 1
247 36 8 4.0999999999999998e-01 1.0602208823596488e+01 4.5443139428034296e-01 1.3287374228030155e+00 1 1 1
337 66 8 4.0999999999999998e-01 6.0594347040749792e+00 2.0642554137467908e+00 1.2626734857215283e-01 3 -1 0
305 55 8 4.0999999999999998e-01 1.2864255241264686e+01 1.2387738583529950e+00 8.1445453122247624e+00 4 -2 1
253 38 8 4.0999999999999998e-01 1.6893454014399065e+01 4.3720369734536737e+00 6.2069682580711669e+00 -1 0 1
254 38 8 4.0999999999999998e-01 1.6454788068490902e+01 5.9909017351037575e+00 5.9751594647539052e+00 -1 0 1
252 38 7 -8.1999999999999995e-01 1.6403750794657732e+01 5.0059272731423690e+00 5.6271381554490487e+00 -1 0 1
339 67 7 -8.1999999999999995e-01 1.6507003321419422e+01 7.3635422715324317e-01 6.1253006136185553e+00 -2 -1 0
183 26 5 9.1100000000000003e-01 1.3804425612889924e+01 6.9590934237606499e+00 8.1881154742474003e+00 -1 0 -2
341 67 8 4.0999999999999998e-01 1.6472234754317828e+01 1.5242161503908175e-01 5.2756320495499036e+00 -2 -1 0
189 26 5 9.1100000000000003e-01 1.6486894585733747e+01 8.3495388691024974e+00 8.1287943454517286e+00 -1 0 -2
289 50 8 4.0999999999999998e-01 1.5452914063924437e+01 6.9405703579702100e+00 1.7857392232915388e+00 -3 1 -1
306 56 7 -8.1999999999999995e-01 1.6434331281612309e+01 2.4858727216584051e+00 2.8291870087023394e+00 -2 1 4
271 44 8 4.0999999999999998e-01 1.2291221657032075e+01 6.6243420066757763e-01 3.7878406917477085e+00 -4 -2 -4
10 10 1 8.0000000000000004e-01 1.2102532036448110e+01 2.1863145044609844e+00 5.4701372339829835e+00 -1 -2 -2
304 55 8 4.0999999999999998e-01 1.1360114752793343e+01 1.4358657548336873e+00 7.7231982167725013e+00 4 -2 1
272 44 8 4.0999999999999998e-01 1.2967233660995252e+01 1.5798490143592525e+00 2.5423855267141420e+00 -4 -2 -4
340 67 8 4.0999999999999998e-01 1.5747266931271518e+01 1.3004048248620099e+00 5.9571047102914871e+00 -2 -1 0
297 53 7 -8.1999999999999995e-01 1.3748816460662804e+01 4.7745635927897370e+00 3.1594103328645540e+00 -2 1 -2
186 26 6 -5.8799999999999997e-01 1.5499101474819996e+01 7.0352611581604139e+00 7.7089209632914750e+00 -1 0 -2
298 53 8 4.0999999999999998e-01 1.3111219562760269e+01 4.4001364140251997e+00 2.4385346230886125e+00 -2 1 -2
303 55 7 -8.1999999999999995e-01 1.2285551459470240e+01 1.7876198502346978e+00 7.4925462548149442e+00 4 -2 1
5 5 1 8.0000000000000004e-01 1.5228923713024660e+01 3.7402323896748895e+00 4.2022920794558614e+00 -3 -1 -2
308 56 8 4.0999999999999998e-01 1.6338459081695476e+01 1.5036813444697721e+00 2.5433774058300265e+00 -2 1 4
226 29 8 4.0999999999999998e-01 1.3347630836370199e+01 4.4619662040420600e+00 5.0572712360372591e+00 1 -1 2
67 18 2 -4.6100000000000002e-01 1.1945477206241648e+01 4.0955334609802527e+00 1.2574923780885001e+00 0 0 1
299 53 8 4.0999999999999998e-01 1.4226206672651697e+01 5.6349920640708602e+00 2.8916529902167514e+00 -2 1 -2
270 44 7 -8.1999999999999995e-01 1.2763910184986242e+01 1.5056820081000319e+00 3.5669721105151186e+00 -4 -2 -4
227 29 8 4.0999999999999998e-01 1.3889649221632387e+01 3.8693540699458251e+00 6.5948846220290180e+00 1 -1 2
290 50 8 4.0999999999999998e-01 1.5822964915936186e+01 7.1686242153254165e+00 3.3667102076445388e+00 -3 1 -1
184 26 2 -4.6100000000000002e-01 1.3105135565565929e+01 6.6257022352235673e+00 6.9196476372765101e+00 -1 0 -2
288 50 7 -8.1999999999999995e-01 1.5099750471760609e+01 7.2470534518512144e+00 2.6587553079422235e+00 -3 1 -1
225 29 7 -8.1999999999999995e-01 1.3769315842302779e+01 3.6934181323074600e+00 5.6007081025153385e+00 1 -1 2
173 25 3 -1.3800000000000001e-01 1.2551208066025687e+01 7.9543310734089001e+00 6.0347826586612074e-01 -3 -1 2
209 27 3 -1.3800000000000001e-01 1.3446266633860560e+01 1.6747199827522770e+00 4.0497178835381592e-01 -2 0 -1
240 34 7 -8.1999999999999995e-01 2.0714167241670585e+00 3.0876250477015001e+00 1.4360788603739167e+01 1 4 0
42 16 3 -1.3800000000000001e-01 2.6658690076999010e+00 2.7404109195688453e+00 1.0870094659730414e+01 0 -1 -2
76 19 3 -1.3800000000000001e-01 3.6585810677131092e+00 6.2150643286678795e+00 1.2185864624757604e+01 -2 1 -1
135 23 2 -4.6100000000000002e-01 4.3498039086716549e+00 4.4754430136991541e-01 1.4500718337727646e+01 0 -2 -2
7 7 1 8.0000000000000004e-01 3.4125518097762746e+00 1.8211280232206957e+00 1.5776597363776274e+01 0 0 -3
241 34 8 4.0999999999999998e-01 1.6355191857746869e+00 4.0347912104792689e+00 1.4540805076185833e+01 1 4 0
43 16 4 3.1900000000000001e-01 2.5289065530960126e+00 3.4800601772538764e+00 9.7260442419004036e+00 0 -1 -2
39 16 5 9.1100000000000003e-01 1.2193226431438298e+00 2.8614351002081819e+00 8.7162234251509396e+00 0 -1 -2
242 34 8 4.0999999999999998e-01 2.2144591750612848e+00 3.1580003008835527e+00 1.3318341240676020e+01 1 4 0
37 16 2 -4.6100000000000002e-01 1.5483062543143973e+00 1.4398041461612889e+00 8.5322506551583785e+00 0 -1 -2
285 49 7 -8.1999999999999995e-01 3.7332666093145908e-02 5.2669943990826544e+00 1.2850561505622354e+01 2 1 1
83 19 3 -1.3800000000000001e-01 3.9061030600012385e+00 6.8622790575718575e+00 1.0128752353727284e+01 -2 1 -1
50 17 3 -1.3800000000000001e-01 4.4320514001696880e+00 4.7057050198497645e+00 1.6358673458536394e+01 1 -1 -2
86 19 3 -1.3800000000000001e-01 2.2019973269317319e+00 7.4325524107194747e+00 1.4061982199813688e+01 -2 1 -1
38 16 3 -1.3800000000000001e-01 6.6961723506921256e-01 4.9170225331327477e-01 1.1889618674111171e+01 0 -1 -2
77 19 4 3.1900000000000001e-01 4.4996740897473524e+00 6.8191543668540193e+00 1.1380784375280031e+01 -2 1 -1
136 23 3 -1.3800000000000001e-01 5.2073505846212331e+00 1.3033288881591223e+00 1.1726523370469616e+01 0 -2 -2
286 49 8 4.0999999999999998e-01 8.1555073730881633e-01 5.5385203185923926e+00 1.2295793306625987e+01 2 1 1
79 19 2 -4.6100000000000002e-01 5.2949406318164538e+00 8.3177929902392069e+00 1.3428807057111733e+01 -2 1 -1
46 17 3 -1.3800000000000001e-01 5.5977420868843550e+00 6.3751360816398766e+00 1.5975895672272548e+01 1 -1 -2
194 26 3 -1.3800000000000001e-01 5.2844477239979337e-01 7.2185994607986075e+00 1.0280165223272272e+01 0 0 -2
281 47 8 4.0999999999999998e-01 4.0283015528225450e+00 8.4188840975309756e+00 1.6819421951676937e+01 -1 -3 -2
44 16 3 -1.3800000000000001e-01 2.2213442661102110e+00 4.7442558837613280e+00 1.0113855384751631e+01 0 -1 -2
47 17 4 3.1900000000000001e-01 5.4988054479083974e+00 5.3230135931366958e+00 1.6727199967021601e+01 1 -1 -2
41 16 3 -1.3800000000000001e-01 3.6900555705488198e+00 3.4844774515474524e+00 9.0629106924082024e+00 0 -1 -2
332 64 8 4.0999999999999998e-01 7.8641562559773615e+00 7.9337748490212174e+00 1.4823983001765948e+01 -2 1 0
140 23 3 -1.3800000000000001e-01 7.3131395466012830e+00 9.6972610675971171e-01 1.2332053910072197e+01 0 -2 -2
133 22 4 3.1900000000000001e-01 8.1878922330105972e+00 3.1943357017261813e+00 8.6461560238555126e+00 0 -2 1
137 23 4 3.1900000000000001e-01 6.0466038137355396e+00 1.2234926043419669e+00 1.2803331177369333e+01 0 -2 -2
53 17 3 -1.3800000000000001e-01 6.5351760562171606e+00 4.4352011330452470e+00 1.6419055401777552e+01 1 -1 -2
94 20 2 -4.6100000000000002e-01 1.0906184017822161e+01 7.6644528890186570e-01 1.4700312886644115e+01 0 1 -1
80 19 3 -1.3800000000000001e-01 5.6761547881960190e+00 6.1272211156858756e+00 1.1278634890210567e+01 -2 1 -1
73 18 4 3.1900000000000001e-01 1.0153774549400568e+01 3.7505418827784180e+00 1.6386436222005557e+01 0 0 0
112 21 2 -4.6100000000000002e-01 1.1040879927431694e+01 7.9202883038487775e+00 1.1323201181224324e+01 1 -1 1
95 20 3 -1.3800000000000001e-01 1.0953202415247212e+01 1.2232277825910960e+00 1.0939666616388386e+01 0 1 -1
91 20 3 -1.3800000000000001e-01 9.9235244602607349e+00 2.5481876826967511e+00 1.2152940849358982e+01 0 1 -1
143 23 3 -1.3800000000000001e-01 5.9412595527903216e+00 2.4925607311772486e+00 1.3338890382091730e+01 0 -2 -2
119 21 3 -1.3800000000000001e-01 8.2957716338194327e+00 5.8923855376039898e+00 1.3289501610312410e+01 1 -1 1
118 21 4 3.1900000000000001e-01 9.4546099928229630e+00 6.1097907185982434e+00 1.2539471966753609e+01 1 -1 1
117 21 3 -1.3800000000000001e-01 9.5179144059644969e+00 5.3210256607122535e+00 1.1444189358713926e+01 1 -1 1
116 21 3 -1.3800000000000001e-01 1.0433215767921732e+01 5.5950152327938856e+00 1.3262694177179213e+01 1 -1 1
72 18 3 -1.3800000000000001e-01 9.2150744207865678e+00 2.9834259334691988e+00 1.5949228400125527e+01 0 0 0
132 22 3 -1.3800000000000001e-01 7.4621954405475464e+00 3.6026327281348181e+00 9.7067429018503439e+00 0 -2 1
92 20 4 3.1900000000000001e-01 1.1024638729749698e+01 1.7170017050407589e+00 1.2125315001178496e+01 0 1 -1
131 22 3 -1.3800000000000001e-01 9.4953071088617946e+00 3.5243761060774266e+00 8.7900611588982862e+00 0 -2 1
114 21 5 9.1100000000000003e-01 9.7384262450208929e+00 7.7802887874962048e+00 1.2021502067112893e+01 1 -1 1
111 21 6 -5.8799999999999997e-01 8.5379017356709301e+00 7.9705362946803024e+00 1.0806138786612077e+01 1 -1 1
170 25 3 -1.3800000000000001e-01 1.0616086477423979e+01 7.6128663493486366e+00 1.6621648518629353e+01 -3 -1 1
130 22 2 -4.6100000000000002e-01 8.4930740786952654e+00 4.4789736468890290e-01 9.2502839215637813e+00 0 -2 1
74 18 3 -1.3800000000000001e-01 1.1061894366617542e+01 3.6315044520217916e+00 1.5405614148388290e+01 0 0 0
93 20 5 9.1100000000000003e-01 1.0887340683556436e+01 3.3331083243025694e-01 1.3285562074314237e+01 0 1 -1
71 18 3 -1.3800000000000001e-01 9.6642361067822122e+00 5.0352881628218453e+00 1.6385178847809815e+01 0 0 0
34 16 2 -4.6100000000000002e-01 1.6126902608467844e+01 2.4563400533539387e-01 9.2499550416318410e+00 -1 -1 -2
166 25 3 -1.3800000000000001e-01 1.2298275192458544e+01 8.2024383809715733e+00 1.5324021505482351e+01 -3 -1 1
287 49 8 4.0999999999999998e-01 1.5997205247300661e+01 5.3422646047284603e+00 1.2546206789073480e+01 1 1 1
36 16 6 -5.8799999999999997e-01 1.6656568736805962e+01 2.8363504477847137e+00 9.6425949842467631e+00 -1 -1 -2
32 16 4 3.1900000000000001e-01 1.6337231678264441e+01 9.5808864165833219e-01 1.1831713786799281e+01 -1 -1 -2
208 27 4 3.1900000000000001e-01 1.4442856459690125e+01 1.5350969530253764e+00 1.6439511110592353e+01 -2 0 -2
181 26 3 -1.3800000000000001e-01 1.4120622636698496e+01 4.4101276979156818e+00 8.9216895692090379e+00 -1 0 -2
31 16 3 -1.3800000000000001e-01 1.5539097492399577e+01 7.3588171305148359e-02 1.2526320911163756e+01 -1 -1 -2
191 26 3 -1.3800000000000001e-01 1.5636613024865419e+01 8.4508259752878470e+00 1.0590922533981953e+01 -1 0 -2
185 26 3 -1.3800000000000001e-01 1.2391311574445123e+01 5.4316366796095172e+00 9.8270268975992465e+00 -1 0 -2
98 20 3 -1.3800000000000001e-01 1.2188794746777518e+01 2.4089210196340187e+00 1.2289276548374342e+01 0 1 -1
193 26 4 3.1900000000000001e-01 1.6829081083958719e+01 8.4239273629061238e+00 9.9500872351378522e+00 -1 0 -2
182 26 4 3.1900000000000001e-01 1.3618909491166233e+01 5.6198273735825186e+00 9.4017640033991654e+00 -1 0 -2
33 16 5 9.1100000000000003e-01 1.5841667137375882e+01 1.3439026821024718e+00 1.0102032823284832e+01 -1 -1 -2
30 16 2 -4.6100000000000002e-01 1.4500194266225924e+01 1.7469185076511620e+00 9.8445458851685199e+00 -1 -1 -2
180 26 2 -4.6100000000000002e-01 1.3454646135395455e+01 8.2390217353059079e+00 8.8521879032106181e+00 -1 0 -2
188 26 3 -1.3800000000000001e-01 1.4314359260202707e+01 5.9966094104738286e+00 1.0464962786305456e+01 -1 0 -2
35 16 3 -1.3800000000000001e-01 1.6442723002049377e+01 2.0850373279914844e+00 1.2599809902510444e+01 -1 -1 -2
167 25 4 3.1900000000000001e-01 1.1664344905876618e+01 8.4134935560537798e+00 1.6580960200777451e+01 -3 -1 1
206 27 3 -1.3800000000000001e-01 1.3948541240734141e+01 1.7822411950798787e+00 1.5194706458864752e+01 -2 0 -2
207 27 3 -1.3800000000000001e-01 1.5317429339616110e+01 2.5910898572991692e+00 1.6612349981262557e+01 -2 0 -2
27 15 3 -1.3800000000000001e-01 3.2846426996915676e+00 1.2507161773525057e+01 3.0834610258645050e+00 0 1 1
26 15 3 -1.3800000000000001e-01 3.2650573219321810e+00 1.0769032554642939e+01 1.6922667186100471e+00 0 1 1
28 15 4 3.1900000000000001e-01 3.4607359645464646e+00 1.1161658874571502e+01 2.9877941730389046e+00 0 1 1
29 15 3 -1.3800000000000001e-01 2.4761570970082971e+00 1.0580622840106573e+01 3.6016780655690726e+00 0 1 1
24 15 5 9.1100000000000003e-01 5.1377476410877998e+00 1.0634697670322524e+01 3.5531121252531181e+00 0 1 1
22 15 2 -4.6100000000000002e-01 5.0936668879993965e+00 9.1790791009493162e+00 3.7404783683891516e+00 0 1 1
211 28 3 -1.3800000000000001e-01 5.5815962228864162e+00 1.4128389450299894e+01 2.2112030294566929e+00 0 -1 0
210 28 2 -4.6100000000000002e-01 4.1273272717502287e+00 1.6118558657711308e+01 4.3699299997684804e+00 0 -1 0
310 57 8 4.0999999999999998e-01 3.6768830288153933e+00 1.6034607447959246e+01 7.6148488126751834e+00 -4 -2 4
311 57 8 4.0999999999999998e-01 2.5548580027057661e+00 1.5178445538005841e+01 6.5284873518062803e+00 -4 -2 4
309 57 7 -8.1999999999999995e-01 2.7296690709073306e+00 1.5624254991349973e+01 7.4459770776641987e+00 -4 -2 4
157 24 2 -4.6100000000000002e-01 5.6622487148180012e-01 1.2095074914448714e+01 7.8185457883416154e+00 0 2 0
213 28 5 9.1100000000000003e-01 4.5362777846594762e+00 1.6402903599776941e+01 3.0233540789204003e+00 0 -1 0
318 60 7 -8.1999999999999995e-01 5.2281055336078621e+00 1.3612926917859378e+01 6.8078577063499575e+00 -5 2 1
319 60 8 4.0999999999999998e-01 4.9710783578277917e+00 1.4131603136882054e+01 5.9221444404695198e+00 -5 2 1
320 60 8 4.0999999999999998e-01 5.2280542232957989e+00 1.4350578756044021e+01 7.5675593161754646e+00 -5 2 1
321 61 7 -8.1999999999999995e-01 5.1178154459518996e+00 1.6220666280961829e+01 8.2817644210727455e+00 1 -2 -3
214 28 2 -4.6100000000000002e-01 3.3839957728368697e+00 1.6691144277066066e+01 2.1201021454731883e+00 0 -1 0
160 24 2 -4.6100000000000002e-01 2.6860559611211768e-02 1.4664194457155324e+01 8.1692967535353631e+00 0 2 0
3 3 1 8.0000000000000004e-01 7.1500829053650916e-01 1.6509951077599361e+01 7.6265409870035450e+00 3 -2 -3
200 27 3 -1.3800000000000001e-01 7.4326802353221233e-01 1.4407356598871148e+01 2.6763428689371214e+00 -1 -1 -1
259 40 8 4.0999999999999998e-01 2.1170560218823736e-01 8.8920868867216267e+00 5.0064747600289925e+00 4 1 -2
266 42 8 4.0999999999999998e-01 3.6037481355526260e+00 8.5647642864106555e+00 6.6242976858770541e+00 4 -2 0
212 28 4 3.1900000000000001e-01 5.9374825626782277e+00 1.5379784838548558e+01 2.3232002278232642e+00 0 -1 0
25 15 2 -4.6100000000000002e-01 5.7769360364219411e+00 1.1406777252406716e+01 4.6543771720426719e+00 0 1 1
215 28 3 -1.3800000000000001e-01 7.0035941924479443e+00 1.5428125402089583e+01 3.1254524923804206e+00 0 -1 0
14 14 1 8.0000000000000004e-01 6.6788937500356500e+00 8.9374799613677443e+00 5.1055540353712481e-01 1 1 3
218 28 3 -1.3800000000000001e-01 6.3358744180623923e+00 1.5925090026889649e+01 1.1353658258749153e+00 0 -1 0
248 36 8 4.0999999999999998e-01 1.0228461164409900e+01 1.5853780613818511e+01 8.5361225339584479e-01 1 0 1
4 4 1 8.0000000000000004e-01 5.9497119799601101e+00 1.1746935817549733e+01 7.2453256370305184e+00 1 -4 -1
261 41 7 -8.1999999999999995e-01 7.9614977112321128e+00 1.2406967323126112e+01 7.9843302016993825e+00 -4 -1 2
21 15 6 -5.8799999999999997e-01 6.3379021531732445e+00 1.0762514352783976e+01 2.2905424137720796e+00 0 1 1
19 15 2 -4.6100000000000002e-01 8.5938415597561271e+00 1.2046146922977002e+01 1.9907044587017635e+00 0 1 1
15 15 2 -4.6100000000000002e-01 8.2097228072754209e+00 9.5157719714677960e+00 1.7859126628549591e+00 0 1 1
23 15 3 -1.3800000000000001e-01 8.7880717557804022e+00 1.1564669199288167e+01 4.9346494580471969e+00 0 1 1
121 22 3 -1.3800000000000001e-01 9.1788055733323990e+00 1.4866250940926056e+01 4.9986068879400412e+00 0 -3 1
18 15 5 9.1100000000000003e-01 8.1037093431880312e+00 1.0750812176411465e+01 2.5642896869354654e+00 0 1 1
17 15 4 3.1900000000000001e-01 8.7799516790446770e+00 1.0475620147376080e+01 4.2000678513325678e+00 0 1 1
20 15 3 -1.3800000000000001e-01 8.1685251701248092e+00 9.4636196870528462e+00 4.8194063409004508e+00 0 1 1
16 15 3 -1.3800000000000001e-01 1.0081035978980360e+01 9.9511687438235406e+00 3.9929601927200999e+00 0 1 1
128 22 3 -1.3800000000000001e-01 9.1609605491615689e+00 1.5375152474678213e+01 7.0707485252408935e+00 0 -3 1
122 22 4 3.1900000000000001e-01 8.6613888290075867e+00 1.5761991302144729e+01 5.9859255120761796e+00 0 -3 1
125 22 3 -1.3800000000000001e-01 7.2894469549556149e+00 1.5558737578391595e+01 6.0197967333663085e+00 0 -3 1
268 43 8 4.0999999999999998e-01 8.0451610442804711e+00 1.1998774738545391e+01 1.9880428037625009e-01 -1 -5 2
246 36 7 -8.1999999999999995e-01 1.1036592312614474e+01 1.6472473622576992e+01 1.0877344744944679e+00 1 0 1
262 41 8 4.0999999999999998e-01 8.6604363557557242e+00 1.1818070470781411e+01 8.4485485529199060e+00 -4 -1 2
263 41 8 4.0999999999999998e-01 8.4539450486346102e+00 1.3187106296250924e+01 7.7144608055672039e+00 -4 -1 2
315 59 7 -8.1999999999999995e-01 1.2181765900926429e+01 1.3314126563357881e+01 2.4554975346351520e+00 1 1 0
316 59 8 4.0999999999999998e-01 1.1698113052010051e+01 1.2513795077335333e+01 2.0180976948232776e+00 1 1 0
317 59 8 4.0999999999999998e-01 1.2483198990855440e+01 1.3129059754344155e+01 3.3878387794243161e+00 1 1 0
154 24 2 -4.6100000000000002e-01 1.3988949222281217e+01 1.2429245394808405e+01 5.6366491774036351e+00 -1 2 0
236 32 8 4.0999999999999998e-01 1.6668652341288112e+01 1.2023105472248565e+01 5.1900008260794381e+00 -2 -1 2
276 46 7 -8.1999999999999995e-01 1.2561177017143820e+01 9.5194417729963838e+00 6.1290848751230715e+00 1 -2 -2
234 32 7 -8.1999999999999995e-01 1.6557594746071686e+01 1.1047090516071748e+01 5.5599943987439442e+00 -2 -1 2
165 25 2 -4.6100000000000002e-01 1.1311032707938763e+01 1.0555090707501579e+01 1.3506049454905855e+00 -3 -1 2
278 46 8 4.0999999999999998e-01 1.2272646185405920e+01 9.0422428533726684e+00 5.3159646764212329e+00 1 -2 -2
199 27 2 -4.6100000000000002e-01 1.4092999737086688e+01 1.5557681131465319e+01 1.9775166902896277e+00 -2 -1 -1
296 52 8 4.0999999999999998e-01 1.2708135021629904e+01 1.0812207143518394e+01 7.4255841628498223e+00 1 -3 -2
190 26 2 -4.6100000000000002e-01 1.5613229786746126e+01 9.4551095517794010e+00 7.6140512727529961e+00 -1 0 -2
235 32 8 4.0999999999999998e-01 1.6877314530276578e+01 1.1258798735612782e+01 6.4673877674603242e+00 -2 -1 2
245 35 8 4.0999999999999998e-01 1.4384052752158681e+01 8.5887602773605956e+00 3.3525686829309334e+00 -5 0 0
158 24 3 -1.3800000000000001e-01 1.4195022182172917e+01 1.5900015048217664e+01 7.4310189256633725e+00 -1 2 0
151 24 3 -1.3800000000000001e-01 1.2377435553260565e+01 1.4847044127187720e+01 6.7860764214080183e+00 -1 2 0
195 27 2 -4.6100000000000002e-01 1.5743136311390064e+01 1.6295928923990694e+01 3.6197681553101346e+00 -2 -1 -1
175 25 2 -4.6100000000000002e-01 1.4315548308706726e+01 1.0574668160913538e+01 1.0640980805579596e+00 -3 -1 2
155 24 3 -1.3800000000000001e-01 1.3662593727150810e+01 1.5643847078817124e+01 5.3080188063811571e+00 -1 2 0
196 27 3 -1.3800000000000001e-01 1.5821310686210628e+01 1.3097842228950265e+01 2.8291228849289016e+00 -2 -1 -1
156 24 6 -5.8799999999999997e-01 1.5136719749248098e+01 1.2940320734514746e+01 7.7952416802884539e+00 -1 2 0
153 24 5 9.1100000000000003e-01 1.4687594177271011e+01 1.3624812338437033e+01 6.2144666043902799e+00 -1 2 0
244 35 8 4.0999999999999998e-01 1.3861356348148204e+01 1.0069620977132216e+01 2.9403269983210558e+00 -5 0 0
203 27 3 -1.3800000000000001e-01 1.6509931644372891e+01 1.3855904068864943e+01 9.4117588952771680e-01 -2 -1 -1
197 27 4 3.1900000000000001e-01 1.6389143036218144e+01 1.4157036992630955e+01 2.2515533198394806e+00 -2 -1 -1
2 2 1 8.0000000000000004e-01 1.2661125758223807e+01 1.4412459629924488e+01 8.4710907434153992e-01 -4 0 3
152 24 4 3.1900000000000001e-01 1.3708600594165627e+01 1.5063568214223963e+01 6.4515733385457210e+00 -1 2 0
198 27 5 9.1100000000000003e-01 1.5443175386879927e+01 1.5646011661731764e+01 2.4028790468692258e+00 -2 -1 -1
11 11 1 8.0000000000000004e-01 1.4682398701068022e+01 1.0185699750502843e+01 5.5727374104285596e+00 -1 -2 0
243 35 7 -8.1999999999999995e-01 1.4112901670360872e+01 9.5265372549097691e+00 3.7985432264985417e+00 -5 0 0
150 24 2 -4.6100000000000002e-01 1.5964658082211386e+01 1.4054383370248924e+01 5.6769502176020428e+00 -1 2 0
277 46 8 4.0999999999999998e-01 1.2149743641770069e+01 8.9366521549468665e+00 6.9331021171014200e+00 1 -2 -2
201 27 6 -5.8799999999999997e-01 1.6016389967936544e+01 1.6819106518537453e+01 1.2629019539342818e+00 -2 -1 -1
172 25 2 -4.6100000000000002e-01 1.3945279301464245e+01 1.2899533635634926e+01 1.6303227157632580e-01 -3 -1 2
159 24 5 9.1100000000000003e-01 1.6672854099801445e+01 1.3239964645221125e+01 8.4373107038262347e+00 -1 2 0
294 52 7 -8.1999999999999995e-01 1.2939668993200764e+01 1.1119291502171922e+01 8.4116050464104912e+00 1 -3 -2
295 52 8 4.0999999999999998e-01 1.3579050780818907e+01 1.1886863038156070e+01 8.3209262037413332e+00 1 -3 -2
147 23 3 -1.3800000000000001e-01 2.8397722992675338e+00 1.3454980866134566e+01 1.6057193431738160e+01 0 -3 -2
148 23 4 3.1900000000000001e-01 3.8146621693133747e+00 1.4299132003430531e+01 1.5571554084628081e+01 0 -3 -2
85 19 2 -4.6100000000000002e-01 1.5450146088203758e+00 1.0911853772943454e+01 1.2709307687196279e+01 -2 1 -1
84 19 5 9.1100000000000003e-01 2.4621223732033615e+00 9.9696930037171061e+00 1.3257018226634285e+01 -2 1 -1
82 19 2 -4.6100000000000002e-01 3.5879448348109246e+00 1.0366933260945309e+01 1.4065280893763616e+01 -2 1 -1
292 51 8 4.0999999999999998e-01 5.2731832029624819e+00 1.0186017740575002e+01 9.6171328952582797e+00 2 -4 -2
81 19 6 -5.8799999999999997e-01 3.3211862539755748e+00 9.4130354784542210e+00 1.1862572634300186e+01 -2 1 -1
144 23 5 9.1100000000000003e-01 3.8697058286597721e+00 1.4289614778086163e+01 1.3813915677808513e+01 0 -3 -2
142 23 2 -4.6100000000000002e-01 2.7550336672932985e+00 1.5069058228895958e+01 1.3247771294632551e+01 0 -3 -2
9 9 1 8.0000000000000004e-01 4.3761734956465785e+00 1.4195505317533655e+01 1.1337804437592583e+01 -1 -3 -1
146 23 3 -1.3800000000000001e-01 5.0107793652050088e+00 1.3874747201053731e+01 1.6041616777938899e+01 0 -3 -2
149 23 3 -1.3800000000000001e-01 3.5555314681636845e+00 1.5470799270466888e+01 1.6178744187560596e+01 0 -3 -2
313 58 8 4.0999999999999998e-01 1.2998275371816703e-01 1.5270041262037337e+01 1.4328878153952935e+01 -5 -4 -3
162 24 3 -1.3800000000000001e-01 7.8874144118722433e-01 1.2961671904839466e+01 1.0770858651123298e+01 0 2 0
141 23 6 -5.8799999999999997e-01 5.2066400514027231e+00 1.5314736666553424e+01 1.3272681181979962e+01 0 -3 -2