variable        infile index data.mol
variable        mytemp index 373

# set up simulation
#read_restart    ${NAME}.restart.*

# the following information is saved to restart files
units           real
atom_style      full
boundary        p p p
pair_style      lj/cut/coul/long 7
kspace_style    pppm 0.0001
pair_modify     tail yes
pair_modify     mix arithmetic
special_bonds   amber

bond_style      harmonic
angle_style     harmonic
dihedral_style  charmm
#improper_style  cvff

read_data       ${infile}
read_data       data.mol
  orthogonal box = (0 0 0) to (16.9073 16.9207 16.9298)
  1 by 2 by 2 MPI processor grid
  reading atoms ...
  341 atoms
  reading velocities ...
  341 velocities
  scanning bonds ...
  4 = max bonds/atom
  scanning angles ...
  6 = max angles/atom
  scanning dihedrals ...
  12 = max dihedrals/atom
  reading bonds ...
  274 bonds
  reading angles ...
  389 angles
  reading dihedrals ...
  420 dihedrals
  4 = max # of 1-2 neighbors
  6 = max # of 1-3 neighbors
  12 = max # of 1-4 neighbors
  14 = max # of special neighbors
  special bonds CPU = 0.000377966 secs
  read_data CPU = 0.0101793 secs

#replicate       3 4 4

neighbor        2.0 bin
neigh_modify    delay 0 every 1 check yes page 1000000 one 20000
timestep        1.0
#velocity        all create ${mytemp} 314159265 mom yes rot yes dist gaussian

## end information that is saved to restart files

## create velocity profile
#minimize       1e-4 1e-6 10000 10000
#velocity        all create  ${mytemp} 314159265 units box
velocity        all zero linear units box
dump            DUMP all custom 1000 ${NAME}.lammpstrj id type x y z mol
dump            DUMP all custom 1000 mol.lammpstrj id type x y z mol
thermo_style    custom step vol temp press ke pe etotal enthalpy evdwl ecoul epair ebond eangle edihed eimp emol elong etail lx ly lz xy xz yz pxy pxz pyz pxx pyy pzz
thermo          1000
#
## thermostat and integrator

#fix             NPT all npt temp ${mytemp} ${mytemp} 100.0 iso 1.0 1.0 100.0
fix             NVT all nvt temp ${mytemp} ${mytemp} 100.0
fix             NVT all nvt temp 373 ${mytemp} 100.0
fix             NVT all nvt temp 373 373 100.0

restart         50000 restart.${NAME}.1 restart.${NAME}.2
restart         50000 restart.mol.1 restart.${NAME}.2
restart         50000 restart.mol.1 restart.mol.2
run             10000000
PPPM initialization ...
  using 12-bit tables for long-range coulomb (src/kspace.cpp:332)
  G vector (1/distance) = 0.371916
  grid = 12 12 12
  stencil order = 5
  estimated absolute RMS force accuracy = 0.0291692
  estimated relative force accuracy = 8.78421e-05
  using double precision KISS FFT
  3d grid and FFT values/proc = 3211 432
Neighbor list info ...
  update every 1 steps, delay 0 steps, check yes
  max neighbors/atom: 20000, page size: 1000000
  master list distance cutoff = 9
  ghost atom cutoff = 9
  binsize = 4.5, bins = 4 4 4
  1 neighbor lists, perpetual/occasional/extra = 1 0 0
  (1) pair lj/cut/coul/long, perpetual
      attributes: half, newton on
      pair build: half/bin/newton
      stencil: half/bin/3d/newton
      bin: standard
Per MPI rank memory allocation (min/avg/max) = 17.94 | 17.94 | 17.94 Mbytes
Step Volume Temp Press KinEng PotEng TotEng Enthalpy E_vdwl E_coul E_pair E_bond E_angle E_dihed E_impro E_mol E_long E_tail Lx Ly Lz Xy Xz Yz Pxy Pxz Pyz Pxx Pyy Pzz 
       0    4843.3339    363.00458   -273.48362    367.89622   -641.99462   -274.09841   -293.41594   -90.467911    4924.1776   -1573.5242    125.20711    186.73173    619.59073            0    931.52957   -6407.2339   -45.460554      16.9073      16.9207      16.9298            0            0            0    2661.4779    -2107.143   -4205.5365    1562.5834    -2402.953    19.918777 
    1000    4843.3339    394.37019    3748.6577    399.68449   -656.78118   -257.09669    7.6899623    -66.98153     4906.373    -1570.116    125.57261    169.08454     618.6777            0    913.33485   -6409.5075   -45.460554      16.9073      16.9207      16.9298            0            0            0    4120.7467   -2301.0061   -1502.0073    6569.4477    3712.1645    964.36106 
    2000    4843.3339     381.5974    3940.6176    386.73958   -626.89008   -240.15049    38.195256   -58.966676    4918.3372   -1554.0732    124.04422    175.34197    627.79693            0    927.18312   -6413.4437   -45.460554      16.9073      16.9207      16.9298            0            0            0    5206.3601     778.2174    1482.7422    5662.8448    3292.3012    2866.7068 
    3000    4843.3339    354.83733    2014.1548    359.61891   -673.56676   -313.94784    -171.6779   -52.386835    4873.2758   -1593.4796    105.47918    194.49088    619.94277            0    919.91283   -6414.3685   -45.460554      16.9073      16.9207      16.9298            0            0            0    2992.7831    2801.5756     348.1873    2120.0274    630.39289    3292.0443 
    4000    4843.3339    379.84219   -502.95051    384.96072   -655.83364   -270.87292   -306.39886    -82.14142    4948.7177   -1545.4647    102.86145    166.24498    620.52462            0    889.63106    -6412.041   -45.460554      16.9073      16.9207      16.9298            0            0            0   -4151.4278   -3295.6458    -2792.946   -4096.3359    849.44586    1738.0385 
    5000    4843.3339    381.96877    986.43391    387.11596   -653.53943   -266.42347   -196.74665   -66.349574    4915.4612   -1564.2368    119.96719     169.5355    621.19468            0    910.69737   -6413.3485   -45.460554      16.9073      16.9207      16.9298            0            0            0   -1330.8602    570.91604    2073.0093   -435.48575    4283.2096   -888.42211 
    6000    4843.3339    382.12876   -3176.5216     387.2781   -659.94453   -272.66643   -497.04022   -85.748568    4938.9402   -1554.4273    99.527826    171.14878    623.80613            0    894.48273   -6407.6189   -45.460554      16.9073      16.9207      16.9298            0            0            0   -2080.3534    526.72783    5227.1481   -2716.3237   -1132.3868   -5680.8542 
    7000    4843.3339    336.06276    1489.5595    340.59135   -597.10613   -256.51478   -151.29966   -68.804572    4958.5791   -1520.1417     126.3403    176.50747    620.18778            0    923.03555   -6409.9162   -45.460554      16.9073      16.9207      16.9298            0            0            0    2164.1805    1265.3003    3563.9903    1551.6059    1855.2684    1061.8043 
    8000    4843.3339    330.39972   -848.25093      334.852   -631.50948   -296.65748   -356.57374   -78.947635    4933.6626   -1557.3499    124.66805    176.79444    624.37793            0    925.84041   -6412.0648   -45.460554      16.9073      16.9207      16.9298            0            0            0    363.82351    1800.6685   -1471.1729    3338.5865   -3065.1375   -2818.2019 
    9000    4843.3339    373.63933    1712.9765    378.67428   -612.19494   -233.52066   -112.52447   -73.761978     4927.446   -1556.3938     128.5247    189.06309    626.61111            0     944.1989   -6410.0779   -45.460554      16.9073      16.9207      16.9298            0            0            0    570.92498    107.53144   -4207.9756    8169.3129   -332.81669   -2697.5667 
   10000    4843.3339    389.45114    3818.8383    394.69916   -619.55241   -224.85325     44.89061   -55.845436     4927.872   -1542.5362    130.44366    164.23626    628.30385            0    922.98378   -6414.5627   -45.460554      16.9073      16.9207      16.9298            0            0            0     -832.095   -502.20118   -590.75518    2437.8542    9218.5679   -199.90711 
   11000    4843.3339    353.33345   -1096.9288    358.09477   -641.58626    -283.4915   -360.97312   -87.155886    4946.7717   -1553.3624    115.78559    171.01957    624.97101            0    911.77616   -6412.9783   -45.460554      16.9073      16.9207      16.9298            0            0            0   -1427.6041    2619.0164      6155.54   -3480.0644    1153.5288   -964.25066 
   12000    4843.3339    376.30587   -546.83663    381.37675   -656.83992   -275.46317   -314.08901   -68.015138    4917.6346   -1557.9537    97.890267    174.60289    628.62063            0    901.11378   -6407.5732   -45.460554      16.9073      16.9207      16.9298            0            0            0   -2500.2104   -1363.4446   -5013.5921    728.58944    1240.7773   -3609.8767 
   13000    4843.3339    378.60502    2383.7924    383.70688   -629.69356   -245.98668   -77.607367     -61.2194     4902.668   -1562.6689    120.93265    182.43685    629.60579            0     932.9753   -6404.1175   -45.460554      16.9073      16.9207      16.9298            0            0            0    2905.8224   -3266.3347    1735.3654    2929.3055    2161.3213    2060.7502 
   14000    4843.3339    357.62542    590.72127    362.44457   -648.03096   -285.58638   -243.86075   -56.161731    4912.3406   -1559.6593    110.52302    185.44566    615.65964            0    911.62831   -6415.8381   -45.460554      16.9073      16.9207      16.9298            0            0            0    1449.1845     2990.661    1389.3974   -3691.8697    4024.2457    1439.7878 
   15000    4843.3339    394.28023    2183.8045    399.59332   -644.08198   -244.48866   -90.235507   -74.064445    4914.6823   -1567.2044    101.43581    194.43459    627.25205            0    923.12245   -6407.8223   -45.460554      16.9073      16.9207      16.9298            0            0            0    1744.0905   -245.76098   -3456.6513   -119.81541    1192.2511    5478.9777 
   16000    4843.3339    360.42415   -1916.7892    365.28102   -620.20709   -254.92607   -390.31858   -61.626997    4904.7986   -1562.5828    138.01334    181.32256     623.0398            0    942.37571   -6405.7544   -45.460554      16.9073      16.9207      16.9298            0            0            0   -434.83932     -582.088   -236.30276   -5880.9866    334.46916   -203.85005 
   17000    4843.3339     362.7809    376.75869    367.66952   -604.71584   -237.04632   -210.43395    -43.17726     4909.458    -1541.075    135.59643    179.17486    621.58785            0    936.35914   -6407.3558   -45.460554      16.9073      16.9207      16.9298            0            0            0    353.13382   -868.80275    4815.3668    801.59363    941.25426   -612.57183 
   18000    4843.3339    368.84379    3832.1464    373.81412   -618.50177   -244.68765    25.996227   -71.532784    4918.5937   -1563.2042     126.3608    193.57982    624.76181            0    944.70243   -6410.2651   -45.460554      16.9073      16.9207      16.9298            0            0            0    3014.2188    2085.9606     3056.998    6532.8266    2359.9781    2603.6346 
   19000    4843.3339    364.71566   -223.02934    369.63036   -632.70902   -263.07866   -278.83236   -49.102708    4922.2373   -1535.5935    96.926739    188.67654    617.28118            0    902.88446   -6408.7281   -45.460554      16.9073      16.9207      16.9298            0            0            0   -4001.8682   -1073.2981   -3875.5883    4072.2506   -2104.9818   -2636.3568 
   20000    4843.3339     400.0289    4571.1901    405.41946   -635.42439   -230.00493    92.881342   -55.163806    4892.6931   -1573.7491      117.985    202.48973    617.85003            0    938.32476   -6411.2784   -45.460554      16.9073      16.9207      16.9298            0            0            0    3764.8848    -4619.688    124.01755    5825.6991    2535.7055    5352.1655 
   21000    4843.3339    389.74771   -863.64042    394.99972    -661.4247   -266.42498   -327.42827   -76.498744     4920.249   -1567.3771    111.74747    173.10459    621.10037            0    905.95243   -6411.1274   -45.460554      16.9073      16.9207      16.9298            0            0            0   -2469.6602    3905.8712   -1752.3408   -33.405501   -1195.7943   -1361.7215 
   22000    4843.3339    361.02258    3574.6291    365.88751   -612.13319   -246.24568    6.2484478   -68.564596    4938.2958   -1536.9407     111.5302    194.55833    618.71901            0    924.80754   -6406.6719   -45.460554      16.9073      16.9207      16.9298            0            0            0    468.78506   -138.55752    -2808.365    216.04493    4064.0404    6443.8019 
   23000    4843.3339    360.54978   -3876.4304    365.40834   -628.84841   -263.44007   -537.25195   -57.256516    4915.0961   -1550.2739    117.83213    180.52455     623.0688            0    921.42547   -6408.1134   -45.460554      16.9073      16.9207      16.9298            0            0            0   -2069.9461    650.17912    1424.0171   -2399.6436   -7327.6829   -1901.9647 
   24000    4843.3339    382.77653    4723.1523     387.9346   -641.29641   -253.36181     80.25832   -64.466969    4899.9358    -1571.901    114.71591    205.20037    610.68829            0    930.60457   -6407.3698   -45.460554      16.9073      16.9207      16.9298            0            0            0   -1181.2067     -978.061    295.67036    5252.6628    4569.1434    4347.6506 
   25000    4843.3339    373.61223    2928.4456    378.64681   -651.48206   -272.83525   -65.984328   -48.375748    4894.7282    -1560.544    116.75342    175.17575    617.13272            0    909.06189   -6406.8964   -45.460554      16.9073      16.9207      16.9298            0            0            0   -243.98575   -1695.8369    1305.4536    5986.3351   -961.15025    3760.1521 
   26000    4843.3339    367.53793   -5310.4959    372.49066   -638.89501   -266.40435   -641.51153   -67.109493    4890.8197   -1585.8398    121.09843    202.40319    623.44321            0    946.94483   -6409.5501   -45.460554      16.9073      16.9207      16.9298            0            0            0   -53.855069   -433.87375   -3835.9412   -4004.2817    -6232.968   -5694.2381 
   27000    4843.3339    370.22896    -4898.928    375.21795   -670.52626    -295.3083   -641.34436   -92.364496    4914.2975   -1586.8428    99.243475    198.93551    618.13753            0    916.31652   -6408.7758   -45.460554      16.9073      16.9207      16.9298            0            0            0   -1588.7021    424.73563    -2930.685   -7346.1797    -2650.493   -4700.1114 
   28000    4843.3339    356.90426   -1630.0964    361.71369   -613.86431   -252.15062   -367.29257   -90.684304    4967.4668   -1533.8521    115.27602    183.47024    621.24153            0    919.98779   -6410.6346   -45.460554      16.9073      16.9207      16.9298            0            0            0    2052.5491   -1150.8216    2054.2702    239.20838   -487.90899   -4641.5887 
   29000    4843.3339    413.47042     2313.215     419.0421   -663.09277   -244.05066   -80.656592   -82.402093    4945.5561   -1548.8642    105.47181     157.0672    623.23241            0    885.77142   -6412.0182   -45.460554      16.9073      16.9207      16.9298            0            0            0   -495.95507   -1635.0185    1616.5845   -211.07635    5657.7657    1492.9555 
   30000    4843.3339    385.27868    7100.4802    390.47047   -635.23417    -244.7637    256.77913   -72.087104    4931.1167   -1554.7689    106.24212    196.31512    616.97754            0    919.53478   -6413.7986   -45.460554      16.9073      16.9207      16.9298            0            0            0    2739.5789    301.31479     909.9963    5112.7185    4397.7926     11790.93 
   31000    4843.3339    368.40029    1842.5149    373.36463   -611.58325   -238.21862   -108.07247   -63.834377    4936.6624   -1534.2057    128.09434    165.79002    628.73813            0    922.62249   -6407.0338   -45.460554      16.9073      16.9207      16.9298            0            0            0    594.00968    1539.7054    1573.6215   -319.31228     2620.662     3226.195 
   32000    4843.3339    355.12318   -3624.7871    359.90861   -634.44934   -274.54073   -530.57777   -75.877073    4933.5804    -1552.004    101.27796    191.21732    625.05936            0    917.55463   -6409.7073   -45.460554      16.9073      16.9207      16.9298            0            0            0    2062.3651    1419.8249   -5496.0689   -5027.1983   -2006.0378   -3841.1252 
   33000    4843.3339    366.50977    220.28932    371.44864   -607.07574    -235.6271   -220.06695   -70.642354    4938.0204   -1537.9879    108.37089    206.15301     616.3883            0     930.9122    -6405.366   -45.460554      16.9073      16.9207      16.9298            0            0            0   -2031.0664   -699.49781   -2006.7335    -3046.286    1865.7093    1841.4447 
   34000    4843.3339    365.23264   -25.783941     370.1543   -615.31491   -245.16061   -246.98186   -102.19326    4969.8499   -1542.0865    112.59781    184.84899     629.3248            0     926.7716   -6409.7431   -45.460554      16.9073      16.9207      16.9298            0            0            0    5179.5722    4117.6004   -972.89467    1357.7015     169.5295   -1604.5828 
   35000    4843.3339     378.1853    1158.1195    383.28151   -608.46775   -225.18624    -143.3824   -101.55761    4961.5351   -1551.3484    118.87853    193.75456    630.24753            0    942.88063   -6411.3258   -45.460554      16.9073      16.9207      16.9298            0            0            0    548.14861    421.45828   -2545.8875   -1244.6816    5625.9787   -906.93866 
   36000    4843.3339    373.67648    1819.2695    378.71193   -628.97768   -250.26575   -121.76155    -68.25039    4928.1039    -1551.297    114.96576    185.37725    621.97632            0    922.31933   -6411.1505   -45.460554      16.9073      16.9207      16.9298            0            0            0   -3859.4329   -335.37699    -125.2784      3943.67    5470.7356   -3956.5972 
   37000    4843.3339    390.55897   -2317.8064    395.82192   -631.72336   -235.90145   -399.61984   -73.497002    4921.3062   -1560.2268    119.25651    179.63986    629.60708            0    928.50346    -6408.036   -45.460554      16.9073      16.9207      16.9298            0            0            0    70.171439   -111.02065   -2104.3517   -2417.7619   -931.39182   -3604.2655 
   38000    4843.3339    390.64574    3329.2107    395.90985   -630.06909   -234.15924   0.99974944   -72.294098    4932.2015   -1548.4561    112.46389    184.91639    621.00676            0    918.38704   -6408.3635   -45.460554      16.9073      16.9207      16.9298            0            0            0   -1938.3905   -1096.6842    321.40801    6795.2886    140.72812    3051.6154 
   39000    4843.3339    397.46413    3273.2391    402.82013   -608.03937   -205.21925    25.986183   -67.690159     4956.413   -1517.3821    112.77958    172.93394    623.62923            0    909.34274   -6406.1049   -45.460554      16.9073      16.9207      16.9298            0            0            0   -3761.3139    1310.9451    4203.5414    3063.3619    767.56786    5988.7876 
   40000    4843.3339    356.36903   -3470.3594    361.17125   -629.16924   -267.99799   -513.12702   -60.625966     4926.982   -1540.3317    120.92251     174.2615    615.97843            0    911.16244   -6406.6877   -45.460554      16.9073      16.9207      16.9298            0            0            0   -554.40064    2084.3568   -4654.4778   -2353.3172   -6121.4541   -1936.3069 
   41000    4843.3339    372.50005    7641.5921    377.51965   -601.58846   -224.06881    315.69548   -60.673175    4957.1093   -1511.8028    116.38002    168.39093    625.44339            0    910.21435   -6408.2389   -45.460554      16.9073      16.9207      16.9298            0            0            0   -3189.3749    45.877471    990.89307    9613.5146     6896.556    6414.7055 
   42000    4843.3339    363.74186   -545.76326    368.64343    -637.5635   -268.92007   -307.47009   -66.804827    4937.9586   -1540.0436    116.47071    168.24782    617.76161            0    902.48014   -6411.1975   -45.460554      16.9073      16.9207      16.9298            0            0            0   -1991.9254    -2340.618    565.60685   -425.71523    135.60356   -1347.1781 
   43000    4843.3339    347.15382   -1794.0846    351.83186   -675.28879   -323.45693    -450.1822   -82.916038    4919.1553   -1572.8226      109.205    160.13015    628.19864            0    897.53379   -6409.0618   -45.460554      16.9073      16.9207      16.9298            0            0            0    1277.2094   -1820.5751    1998.9785    -3524.578    72.290634   -1929.9664 
   44000    4843.3339    363.97319    569.48809    368.87788   -608.25442   -239.37654   -199.15071   -62.184894    4916.5059   -1550.8719    132.28625    182.78756    627.54364            0    942.61746   -6405.1929   -45.460554      16.9073      16.9207      16.9298            0            0            0   -59.151467    1324.4542   -1113.8391    5310.8101     587.4767   -4189.8225 
   45000    4843.3339    346.59584    4089.4858    351.26637   -616.54663   -265.28027    23.580799   -65.496352    4927.8053   -1542.4295    115.89136    195.61689    614.37457            0    925.88282   -6404.7384   -45.460554      16.9073      16.9207      16.9298            0            0            0    1366.2726   -1045.1402    -1040.015    6057.0822    4765.6799    1445.6954 
   46000    4843.3339    366.50477    2017.8873    371.44358   -584.97082   -213.52725   -70.993663   -68.355422    4952.4168   -1524.0893    120.01917    194.91853    624.18077            0    939.11848   -6408.1507   -45.460554      16.9073      16.9207      16.9298            0            0            0    753.90472    864.36685    1146.4552    1585.2818    390.52172    4077.8583 
   47000    4843.3339    376.69028    2725.0491    381.76634   -626.14661   -244.38026   -51.896268   -87.439121    4919.6442   -1577.3108    120.89672    210.69748    619.57003            0    951.16423   -6409.5159   -45.460554      16.9073      16.9207      16.9298            0            0            0     1660.408    2073.3967    566.05237    3616.4209    5348.1176   -789.39135 
   48000    4843.3339    376.21957     2255.704    381.28928   -641.36001   -260.07073   -100.73894   -57.991318    4893.8798   -1573.7358     115.2703    203.04384    614.06163            0    932.37577   -6409.6243   -45.460554      16.9073      16.9207      16.9298            0            0            0    391.32091    780.81639   -362.10491    937.66415    2647.0811    3182.3669 
   49000    4843.3339    376.64553    2062.6713    381.72099   -606.42823   -224.70725   -79.010343   -59.845251    4937.2137   -1533.7702    111.78309     191.1455    624.41337            0    927.34195   -6411.1386   -45.460554      16.9073      16.9207      16.9298            0            0            0   -2824.4949    -4914.859    609.82852    1337.3277   -466.94814    5317.6343 
   50000    4843.3339    367.03143    -3481.599    371.97734   -631.51601   -259.53868   -505.46162   -89.820284     4940.673   -1561.0976    121.14552    183.09213    625.34399            0    929.58164   -6411.9503   -45.460554      16.9073      16.9207      16.9298            0            0            0    83.858833    2891.0599    2002.2952   -4191.7038   -4572.5772   -1680.5159 
   51000    4843.3339    370.99973     1051.846    375.99911   -671.25333   -295.25422   -220.95702   -74.856926    4921.8467   -1560.8541     112.7537    154.65026     622.1968            0    889.60076   -6407.8439   -45.460554      16.9073      16.9207      16.9298            0            0            0   -2181.5827   -450.37234    560.69785   -720.11605    -1758.076    5633.7301 
   52000    4843.3339    401.15928   -1500.0202    406.56507   -619.08732   -212.52226   -318.47627   -65.726228    4949.3512   -1525.1963    103.27527    182.22837    620.60539            0    906.10902   -6408.8213   -45.460554      16.9073      16.9207      16.9298            0            0            0   -1797.9877    1707.7329   -3028.2877   -1604.8006   -5048.1838    2152.9238 
   53000    4843.3339    362.77854    -2992.323    367.66713    -624.9952   -257.32807   -468.69098   -89.122125    4938.7054   -1559.6649    129.92162    181.81111    622.93701            0    934.66973   -6409.2482   -45.460554      16.9073      16.9207      16.9298            0            0            0    1696.2136   -5257.9488    1304.0363   -1827.8495   -1011.4087   -6137.7109 
   54000    4843.3339    356.86004    -3510.507    361.66888   -607.36384   -245.69496   -493.65983   -97.998831    4990.9505    -1513.972    114.60273    167.70987    624.29558            0    906.60817   -6406.9237   -45.460554      16.9073      16.9207      16.9298            0            0            0   -1502.1181    1974.3197   -400.32035   -5080.0267   -3365.4399   -2086.0545 
   55000    4843.3339      364.088   -1722.4871    368.99423   -621.25741   -252.26317   -373.93114   -60.564022    4913.4526   -1555.2928    138.80393    173.06673     622.1647            0    934.03535   -6408.1814   -45.460554      16.9073      16.9207      16.9298            0            0            0   -1805.4578   -1703.2505    110.35768     926.1344   -178.54037   -5915.0553 
   56000    4843.3339    388.81924   -906.61504    394.05874   -642.59884    -248.5401    -312.5789   -70.937482    4921.6951   -1559.8398    116.07968    176.02447    625.13678            0    917.24092   -6410.5974   -45.460554      16.9073      16.9207      16.9298            0            0            0     100.4526    39.921966   -896.04027    1031.3299    72.139014    -3823.314 
   57000    4843.3339    382.56924    -4904.501    387.72452   -648.74349   -261.01897   -607.44868   -75.103338    4914.2737   -1567.4292    113.29768    181.63233    623.75566            0    918.68567   -6406.5995   -45.460554      16.9073      16.9207      16.9298            0            0            0    2668.3729   -722.52697    4676.6749   -2814.7241   -2743.3274   -9155.4514 
   58000    4843.3339    387.96566    3485.3297    393.19366    -624.8227   -231.62904    14.557426   -77.844972    4928.9361   -1555.1511    119.74589    179.54941    631.03307            0    930.32837   -6406.2422   -45.460554      16.9073      16.9207      16.9298            0            0            0     102.3242    1714.0681    3038.3579     3044.196    6060.5426    1351.2506 
   59000    4843.3339    361.59535   -3731.1668    366.46799   -638.05547   -271.58748   -535.13866    -50.51542    4896.7646   -1563.5443     123.9853    176.74699    624.75649            0    925.48878   -6409.7935   -45.460554      16.9073      16.9207      16.9298            0            0            0    2302.9128   -4911.7378   -4451.6122   -1199.3218   -4733.3989   -5260.7798 
   60000    4843.3339    368.29413    1864.4975    373.25705   -644.50095    -271.2439   -139.54501    -44.71476     4887.426   -1567.0774    105.52274    190.23785    626.81582            0    922.57641   -6409.7886   -45.460554      16.9073      16.9207      16.9298            0            0            0    1400.3679     2263.178   -1108.0379   -32.038394    4912.2078    713.32304 
   61000    4843.3339    382.63419    1000.1942    387.79034   -639.20394    -251.4136   -180.76483   -59.161699    4908.8559   -1559.8001    104.64309    191.29682    624.65623            0    920.59614   -6409.4943   -45.460554      16.9073      16.9207      16.9298            0            0            0    216.21293    2224.5933   -1280.4327    599.72713     1088.862    1311.9935 
   62000    4843.3339    375.95014    1999.5558    381.01622   -643.93687   -262.92065   -121.68191   -64.511606    4899.0448   -1573.8478    111.46845    194.73972    623.70273            0     929.9109    -6408.381   -45.460554      16.9073      16.9207      16.9298            0            0            0    427.42699    -2336.226    1719.1489    4032.5173    2842.9007   -876.75059 
   63000    4843.3339    368.18665   -390.95197    373.14812   -623.09951   -249.95139   -277.56631   -72.840295    4915.8947   -1561.2313    129.18046    184.21398    624.73736            0    938.13179   -6404.2857   -45.460554      16.9073      16.9207      16.9298            0            0            0    3091.2093   -1459.3191    1586.1808   -3513.0428   -4364.4485    6704.6355 
   64000    4843.3339    360.05427    184.89127    364.90616   -634.10069   -269.19453   -256.13473   -61.332821    4925.3128   -1542.8883    118.79342     171.1454    618.84876            0    908.78758   -6406.8682   -45.460554      16.9073      16.9207      16.9298            0            0            0   -3914.8923    1262.6462    688.22482    756.79739   -949.58046    747.45689 
   65000    4843.3339    371.11862   -285.88158     376.1196   -606.44642   -230.32682   -250.52008   -67.870283    4918.8883   -1555.4233    121.31868    200.62085    627.03735            0    948.97687   -6406.4413   -45.460554      16.9073      16.9207      16.9298            0            0            0   -2732.5103   -172.75487   -2222.2409    -1315.377    -4789.119    5246.8512 
   66000    4843.3339    387.43418   -559.50602    392.65501   -657.80237   -265.14736    -304.6681   -50.399908    4900.7718   -1557.8451    110.38879    168.34781    621.30617            0    900.04276   -6408.2171   -45.460554      16.9073      16.9207      16.9298            0            0            0   -1495.0808    1692.0039    1582.9496    332.86207    192.87008   -2204.2502 
   67000    4843.3339    358.68303    977.19115    363.51643   -619.26215   -255.74572   -186.72177   -74.376402    4923.3148   -1556.7234    118.09182    195.18602    624.18346            0    937.46129   -6405.6619   -45.460554      16.9073      16.9207      16.9298            0            0            0   -404.59936    1155.1823   -549.35773   -147.67625    2086.0179    993.23182 
   68000    4843.3339    363.73862   -1422.7721    368.64015   -574.39521   -205.75506   -306.25265   -83.135361    4955.2884   -1537.4079    129.63667    205.15736    628.21863            0    963.01266   -6409.5609   -45.460554      16.9073      16.9207      16.9298            0            0            0    413.85285    417.92791   -2137.4201   -877.72844   -3.3824521   -3387.2054 
   69000    4843.3339    348.49804   -2507.6518     353.1942   -622.73695   -269.54275   -446.67087   -69.784066    4945.0962   -1528.4941    108.44986     173.0628    624.24447            0    905.75713   -6403.8063   -45.460554      16.9073      16.9207      16.9298            0            0            0   -2783.3306    257.63885   -1900.0488   -6752.1124   -1811.6681    1040.8251 
   70000    4843.3339    385.86233    400.59995    391.06199   -635.87877   -244.81679   -216.52039    -54.23208    4903.4409   -1557.6317    109.88006    188.35413    623.51874            0    921.75293   -6406.8405   -45.460554      16.9073      16.9207      16.9298            0            0            0    3045.6274    2108.4902   -1849.3032     6993.813   -3901.6845   -1890.3286 
   71000    4843.3339    360.95372    1620.0222    365.81772   -654.72301   -288.90528   -174.47492   -56.877997    4891.9366   -1576.3907    106.64879    193.75388    621.26499            0    921.66767   -6411.4492   -45.460554      16.9073      16.9207      16.9298            0            0            0    2374.6645    985.64574    2689.2459   -2241.8674   -768.53369    7870.4678 
   72000    4843.3339    376.46031   -135.91102    381.53327   -628.95235   -247.41908   -257.01917   -96.360747    4950.6759    -1550.024    120.01669     177.0504    624.00452            0    921.07161   -6404.3391   -45.460554      16.9073      16.9207      16.9298            0            0            0     492.2217   -2832.6565    2386.3019    1973.7237   -1075.2391   -1306.2176 
   73000    4843.3339    368.46097    5269.6863    373.42614   -649.71535   -276.28921    95.935384   -45.088402    4896.5614   -1555.4694    101.56858    169.80477    634.38066            0    905.75402   -6406.9424   -45.460554      16.9073      16.9207      16.9298            0            0            0     5450.633   -2289.1961   -1988.4886    792.07934    5359.8439    9657.1357 
   74000    4843.3339    357.26634   -2288.2639    362.08066    -641.1112   -279.03055    -440.6622   -91.866018    4928.8461   -1572.6422    113.75182    189.87948    627.89965            0    931.53095   -6409.6222   -45.460554      16.9073      16.9207      16.9298            0            0            0    214.69091    -51.99483   -1626.5327    -1873.415   -760.69934   -4230.6774 
   75000    4843.3339    381.65031    9.6851372     386.7932   -605.12871   -218.33551    -217.6514    -70.02019    4937.2333   -1542.3919    128.63975    190.31248    618.31099            0    937.26322    -6409.605   -45.460554      16.9073      16.9207      16.9298            0            0            0   -2057.8496    1226.5709   -3514.3215    2251.6216   -3818.2697    1595.7036 
   76000    4843.3339    379.85837   -4281.3831    384.97712    -655.7802   -270.80308   -573.21882   -79.777061    4917.6402   -1570.5865    117.57134     177.8244    619.41057            0    914.80632   -6408.4497   -45.460554      16.9073      16.9207      16.9298            0            0            0   -1114.6837    897.27316   -1803.8767   -4884.8292   -3023.8046   -4935.5156 
   77000    4843.3339    358.87491   -4488.5909     363.7109   -609.17089   -245.45999   -562.51186   -81.745129    4923.9155   -1564.3195    133.01339     195.5973    626.53794            0    955.14862   -6406.4898   -45.460554      16.9073      16.9207      16.9298            0            0            0    1413.7133   -1696.0329   -2629.1323   -4640.2994   -3185.5281   -5639.9451 
   78000    4843.3339     374.5549   -3721.6613    379.60219   -653.57731   -273.97512   -536.85488   -85.844295    4911.5753   -1578.7188    116.70667    175.35527    633.07959            0    925.14153   -6404.4499   -45.460554      16.9073      16.9207      16.9298            0            0            0   -725.30854   -599.04683   -2013.3065    -3956.813   -2035.9165   -5172.2543 
   79000    4843.3339    369.48511    2610.1263    374.46407   -671.48517    -297.0211   -112.65468    -67.69596    4901.3152   -1575.6922    105.06325    167.41977    631.72402            0    904.20704   -6409.3115   -45.460554      16.9073      16.9207      16.9298            0            0            0   -521.51232    579.96262    -1782.487    1881.7239    2126.9491     3821.706 
   80000    4843.3339    405.42993   -2138.8946    410.89326   -643.31004   -232.41678   -383.49772   -81.038631    4901.2848   -1587.6349      121.048    195.34127    627.93558            0    944.32485    -6407.881   -45.460554      16.9073      16.9207      16.9298            0            0            0   -1601.5326    320.69501    696.12558   -4162.0052    2014.6608   -4269.3395 
   81000    4843.3339    362.94059    -1044.958    367.83137   -648.15518   -280.32382   -354.13448   -102.38467    4915.9771    -1592.184     118.4613    201.35572    624.21176            0    944.02878   -6405.7764   -45.460554      16.9073      16.9207      16.9298            0            0            0    1836.2364     745.6314   -1769.6559    4670.7028    -4352.317   -3453.2597 
   82000    4843.3339    379.97422   -2830.0192    385.09454   -655.13286   -270.03833    -469.9369   -80.516048     4891.144   -1600.6986    117.58187    199.19857     628.7853            0    945.56574   -6411.3265   -45.460554      16.9073      16.9207      16.9298            0            0            0   -1189.9191   -3682.1473    16.313084   -3864.8086   -2304.8715   -2320.3775 
   83000    4843.3339    356.94705   -3891.5134    361.75706   -616.93443   -255.17736   -530.05463   -64.103169    4894.2403   -1580.2799    127.80281    206.92126    628.62145            0    963.34551    -6410.417   -45.460554      16.9073      16.9207      16.9298            0            0            0   -1524.5489   -1942.0598   -1528.8757   -3410.2017    124.13695   -8388.4754 
   84000    4843.3339    402.12693   -135.89312    407.54576   -640.03821   -232.49246   -242.09128   -63.523966    4923.2163   -1550.4507    123.24585    158.16492     629.0017            0    910.41248    -6410.143   -45.460554      16.9073      16.9207      16.9298            0            0            0   -1209.8339    3219.8018    629.05583   -485.66317   -1908.3218    1986.3056 
   85000    4843.3339    361.65531     2378.462    366.52877   -606.98145   -240.45268   -72.449879   -108.08959    4944.2625   -1574.0372     133.0631    211.60565      622.387            0    967.05576   -6410.2101   -45.460554      16.9073      16.9207      16.9298            0            0            0    1442.3554    1975.8805   -1521.4903    7749.6213   -2964.8815     2350.646 
   86000    4843.3339    358.28548    1238.4936    363.11353   -601.72006   -238.60653   -151.12547   -64.777102    4928.6951   -1540.2748    128.62463      181.907     628.0231            0    938.55472   -6404.1928   -45.460554      16.9073      16.9207      16.9298            0            0            0   -5761.7818    2862.7053    1148.0555    1428.6222   -1088.1062    3374.9647 
   87000    4843.3339    382.78513   -3260.9267    387.94332   -617.09432     -229.151   -459.48674   -68.521862    4917.5805   -1557.2679    127.26779    184.17307    628.73271            0    940.17357   -6406.3265   -45.460554      16.9073      16.9207      16.9298            0            0            0    602.46223    4154.1924    3550.2286   -4668.6576   -2094.2116   -3019.9108 
   88000    4843.3339    403.43144     -1545.66    408.86785    -626.7955   -217.92765   -327.10543   -59.670533    4878.5755    -1588.643    126.32008    209.20385    626.32354            0    961.84746   -6407.5479   -45.460554      16.9073      16.9207      16.9298            0            0            0    1447.6579    5892.0953    4793.2533   -621.92758    1832.8442   -5847.8965 
   89000    4843.3339    361.79504    5322.0672    366.67038   -639.61053   -272.94015    102.98437   -41.582638    4870.3951   -1577.8396    111.44005    208.18704    618.60195            0    938.22904    -6406.652   -45.460554      16.9073      16.9207      16.9298            0            0            0   -1546.8995   -613.94833   -3596.6061    8246.3384    1977.7662    5742.0969 
   90000    4843.3339    363.67157   -4625.7867     368.5722   -631.31357   -262.74137   -589.48408   -76.796234    4916.8026   -1563.6849    134.99474    181.98847    615.38816            0    932.37137   -6403.6913   -45.460554      16.9073      16.9207      16.9298            0            0            0    435.67858    810.65759    3701.4579    1192.0702   -5737.0162    -9332.414 
   91000    4843.3339    341.71749   -1310.9323    346.32228   -660.67194   -314.34966   -406.94744   -84.224901    4900.8324   -1594.1213    111.58638    194.20958    627.65344            0     933.4494   -6410.7289   -45.460554      16.9073      16.9207      16.9298            0            0            0    467.27096    482.48489   -2343.6124   -632.55725   -216.31925   -3083.9205 
   92000    4843.3339    378.72308     1153.598    383.82653   -645.00197   -261.17544   -179.69098   -73.614402    4918.5928   -1563.9005    110.82401    181.75571    626.31881            0    918.89853   -6408.8789   -45.460554      16.9073      16.9207      16.9298            0            0            0    854.99707    4496.5616    1029.3805   -1736.8257    4498.7337     698.8859 
   93000    4843.3339    373.20056     4649.489     378.2296    -612.8291    -234.5995     93.81742   -64.356315    4919.6405   -1552.7694    134.07438    188.16194    617.70399            0    939.94032   -6408.0536   -45.460554      16.9073      16.9207      16.9298            0            0            0     -583.566   -1489.5021    408.13876    8784.6942    4326.6527    837.12017 
   94000    4843.3339    378.35301    424.43902    383.45148   -626.02121   -242.56974   -212.58946   -85.867846    4929.4819   -1559.9781    120.89721    188.52012    624.53952            0    933.95686   -6403.5921   -45.460554      16.9073      16.9207      16.9298            0            0            0   -2303.6542   -958.78823    327.79098    -1836.786   -2088.5563    5198.6594 
   95000    4843.3339    365.81352   -2854.1313    370.74301   -606.71891    -235.9759   -437.57762   -64.134421    4890.2392   -1581.9925    137.52228    213.66857    624.08272            0    975.27357   -6408.0973   -45.460554      16.9073      16.9207      16.9298            0            0            0    3381.0019    -3728.702    253.24303    2071.7919    -6091.807   -4542.3787 
   96000    4843.3339    399.19272    852.21274    404.57201   -624.54606   -219.97406   -159.77796   -54.287978     4896.788   -1559.5913    117.20712    194.48532    623.35279            0    935.04523   -6402.0914   -45.460554      16.9073      16.9207      16.9298            0            0            0     1061.222    4701.5492   -6802.0352    3953.3861    5262.1085   -6658.8564 
   97000    4843.3339    370.98712   -144.23828    375.98633   -647.24042   -271.25409   -281.44237   -50.761807    4900.2207   -1560.5057    99.382759    194.81866     619.0639            0    913.26532   -6409.9646   -45.460554      16.9073      16.9207      16.9298            0            0            0   -1836.9271   -1585.0093    569.78045   -70.336799   -1291.9763    929.59825 
   98000    4843.3339    395.31223   -2199.2957    400.63922   -597.18654   -196.54731   -351.89469   -73.720387    4928.9202   -1546.1043    128.68781    196.02801    624.20192            0    948.91773   -6401.3041   -45.460554      16.9073      16.9207      16.9298            0            0            0     34.24401    3648.4258    5839.3239   -4276.1996   -1721.1904   -600.49692 
   99000    4843.3339    366.97216    2838.2772    371.91726    -615.8661   -243.94884   -43.466964   -74.022449    4920.1479   -1560.2094    123.83321    197.54018    622.96993            0    944.34332   -6406.3349   -45.460554      16.9073      16.9207      16.9298            0            0            0    1797.6776   -229.21636    387.56644   -820.59866    5900.8517    3434.5786 
  100000    4843.3339    384.27963   -361.52046    389.45796   -615.88203   -226.42407   -251.96009   -70.887536    4917.6711   -1558.7138    125.97612    188.69386    628.16182            0     942.8318   -6405.4974   -45.460554      16.9073      16.9207      16.9298            0            0            0    2229.8832   -3637.9703   -2315.1102   -703.63136    4212.8949    -4593.825 
  101000    4843.3339    377.75858   -1590.7714    382.84903   -630.32641   -247.47738    -359.8416   -79.016917    4903.5381   -1579.7139    120.49693    219.89987     608.9907            0     949.3875    -6404.235   -45.460554      16.9073      16.9207      16.9298            0            0            0    1817.0788   -4356.8809    3914.6141   -932.41626    -4435.979    596.08117 
  102000    4843.3339    382.28995    1604.5677    387.44146   -610.80002   -223.35856   -110.01982    -82.11158    4947.6725   -1543.2487    125.25232    185.35335    621.84302            0    932.44868   -6408.8096   -45.460554      16.9073      16.9207      16.9298            0            0            0   -3981.5269   -1288.8963    1556.7495    96.317273    1701.8163    3015.5697 
  103000    4843.3339    376.44009   -775.40822    381.51277   -622.32687   -240.81409    -295.5851   -74.743331    4946.0962   -1536.7152    116.66468    169.29485    628.42883            0    914.38836   -6408.0681   -45.460554      16.9073      16.9207      16.9298            0            0            0    866.39042    908.02045    5269.0742   -807.01017   -1578.4737    59.259211 
  104000    4843.3339    389.83355    1384.2064    395.08672   -620.78414   -225.69743   -127.92393   -50.395482     4900.411   -1556.8797    122.89529    191.08268    622.11759            0    936.09556   -6406.8952   -45.460554      16.9073      16.9207      16.9298            0            0            0    1568.9691    3851.5058   -1026.3032    -2045.348    6454.5055   -256.53832 
  105000    4843.3339    372.61964    1435.4851    377.64085   -668.57499   -290.93414   -189.53856   -60.870935    4901.4269   -1569.9853    105.70339    179.47068    616.23619            0    901.41026   -6410.5412   -45.460554      16.9073      16.9207      16.9298            0            0            0    1963.5122    4179.3202    143.45997   -1876.3008    7987.4113   -1804.6551 
  106000    4843.3339    380.33652     2913.205    385.46172   -612.97363   -227.51192   -21.737515   -62.575745    4928.5239    -1546.033    130.11876    185.06798    617.87259            0    933.05933   -6411.9812   -45.460554      16.9073      16.9207      16.9298            0            0            0     1910.887    1777.1157    4718.9796    2942.6292    2506.8564    3290.1295 
  107000    4843.3339    390.93271   -7043.4913    396.20069   -613.93986   -217.73917   -715.25658   -75.477134    4914.7393    -1565.703    144.13906    183.43664    624.18745            0    951.76315   -6404.9652   -45.460554      16.9073      16.9207      16.9298            0            0            0    -482.7073    634.03136    1437.6576    -916.6873   -11673.841   -8539.9455 
  108000    4843.3339     377.9288    1724.1137    383.02154   -630.49214    -247.4706   -125.68773   -82.695278    4936.5779   -1552.5295     113.8158    188.29264    619.92889            0    922.03732    -6406.412   -45.460554      16.9073      16.9207      16.9298            0            0            0    291.25775    2576.6636    85.513907   -4367.3293    4160.5854    5379.0849 
  109000    4843.3339     376.0128    826.98688    381.07973   -631.42405   -250.34432   -191.93006   -84.145945    4922.9769   -1570.7405    117.82042    203.66573    617.83027            0    939.31641   -6409.5715   -45.460554      16.9073      16.9207      16.9298            0            0            0     2265.271   -1889.0511    1096.9501    824.87898    2600.2373   -944.15567 
  110000    4843.3339    377.14699     1805.425     382.2292   -601.73563   -219.50643   -91.980135   -71.127214    4936.6614   -1539.0744    129.33334    188.07488    619.93054            0    937.33875   -6404.6086   -45.460554      16.9073      16.9207      16.9298            0            0            0    -4219.316    508.42787    2637.2434   -3048.2828    3032.8853    5431.6723 
  111000    4843.3339    362.84039   -5436.2025    367.72982   -608.59787   -240.86805   -624.85452   -88.822487    4934.9132   -1559.8366    126.14323    205.12143    619.97406            0    951.23872   -6405.9273   -45.460554      16.9073      16.9207      16.9298            0            0            0    558.34168   -798.25432   -1509.7001   -1988.3525   -4928.6834   -9391.5714 
  112000    4843.3339    370.11244   -1897.6505    375.09986   -650.19456   -275.09469   -409.13535   -79.033595     4915.911   -1573.7299    125.83579    177.85692    619.84262            0    923.53532   -6410.6073   -45.460554      16.9073      16.9207      16.9298            0            0            0   -6771.1597     309.9297   -3418.2966    24.352811    -2213.653   -3503.6514 
  113000    4843.3339    335.65567   -2605.8039    340.17877   -628.94636   -288.76759    -472.8287   -66.309537    4909.4418      -1565.8    128.33317    188.99053    619.52991            0    936.85361   -6408.9323   -45.460554      16.9073      16.9207      16.9298            0            0            0     3512.441    919.65498   -1886.4494   -2860.5717   -1466.9536   -3489.8863 
  114000    4843.3339    374.75258    998.61274    379.80253   -632.02116   -252.21864   -181.68157    -73.85983     4938.666   -1544.7022    114.14063    173.27898    625.26148            0    912.68108   -6409.5084   -45.460554      16.9073      16.9207      16.9298            0            0            0    640.63971   -1011.1249    1284.8997    1460.9189    2614.6656   -1079.7463 
  115000    4843.3339    362.09083   -1706.0185    366.97016   -634.92877   -267.95861   -388.46332   -89.788225    4951.1782   -1549.5348    111.18399    180.65961    622.76247            0    914.60606   -6410.9248   -45.460554      16.9073      16.9207      16.9298            0            0            0    1667.5946   -1663.3806    215.01274    1498.3758   -3419.8512   -3196.5799 
  116000    4843.3339    348.84577   -6655.6548    353.54661   -633.28663   -279.74001   -749.86257   -109.87029    4942.5789   -1574.4952    118.28853    199.71796    623.20213            0    941.20862   -6407.2038   -45.460554      16.9073      16.9207      16.9298            0            0            0    1881.9362   -604.67954    4498.6238   -6291.2028   -8283.8414   -5391.9202 
  117000    4843.3339    375.57391   -7251.1356    380.63492   -615.79844   -235.16351   -747.34789      -80.392    4953.6147   -1532.7962     126.2352    167.67792    623.08464            0    916.99775   -6406.0188   -45.460554      16.9073      16.9207      16.9298            0            0            0    1919.2368   -2945.5887   -2571.3248   -6793.4372   -2507.4285   -12452.541 
  118000    4843.3339    379.11719    997.06631    384.22595   -624.79043   -240.56448   -170.13664   -51.625302    4920.0886   -1542.6757    101.88043    189.71071     626.2941            0    917.88523    -6411.139   -45.460554      16.9073      16.9207      16.9298            0            0            0    2623.8216      1278.12    710.12866   -2584.2121    4237.4254    1337.9857 
  119000    4843.3339    379.65681   -19.795831    384.77285   -643.55866   -258.78581   -260.18409   -87.947658    4947.9549   -1551.9953    104.35103    175.54029    628.54531            0    908.43663   -6412.0025   -45.460554      16.9073      16.9207      16.9298            0            0            0   -2387.6193    1829.0152   -4761.1661   -1019.8057   -1144.5126    2104.9309 
  120000    4843.3339    391.15365    5702.1637    396.42461   -613.49244   -217.06784    185.70483   -49.353435    4896.0858    -1559.874    132.77316    195.10205    618.50637            0    946.38158   -6406.6064   -45.460554      16.9073      16.9207      16.9298            0            0            0   -3552.8883    1450.1482    3853.0534    6715.0617    1789.3215     8602.108 
  121000    4843.3339    345.04493   -2590.0991    349.69455   -612.55142   -262.85686   -445.80866    -87.63283    4946.2284   -1548.1949    128.59354    180.83041     626.2195            0    935.64345   -6406.7904   -45.460554      16.9073      16.9207      16.9298            0            0            0    2340.3177    1029.2591    529.70055    -2919.358    1578.0717   -6429.0109 
  122000    4843.3339    403.09733    1252.5403    408.52923   -620.45528   -211.92604   -123.45279   -60.350584    4900.5786   -1572.1755    134.41669    202.60969    614.69381            0     951.7202   -6412.4035   -45.460554      16.9073      16.9207      16.9298            0            0            0    1363.5863    461.62331    279.23377    133.48036    2198.6946     1425.446 
  123000    4843.3339    370.96806   -2725.9128    375.96701   -615.58063   -239.61362   -432.15862   -78.432325    4929.5984   -1558.3454    143.29912    180.03598    619.42964            0    942.76474   -6409.5114   -45.460554      16.9073      16.9207      16.9298            0            0            0   -95.434149   -3225.0267    2502.0828   -5180.2643    575.28171   -3572.7558 
  124000    4843.3339    353.30608     -2921.22    358.06702   -646.05402   -287.98699   -494.32753   -74.329201    4913.9626   -1572.3069    114.41049     198.3417    613.50069            0    926.25288   -6411.9403   -45.460554      16.9073      16.9207      16.9298            0            0            0   -382.49527   -745.12136   -3245.9676   -3326.6659   -5865.3985    428.40433 
  125000    4843.3339    398.72491   -486.99991     404.0979   -630.20815   -226.11026   -260.50952   -88.121946    4945.6405   -1552.2713    115.66771    190.20233    616.19306            0     922.0631   -6409.7898   -45.460554      16.9073      16.9207      16.9298            0            0            0    3702.0463   -309.16264    3656.4506    5877.9208   -2624.4976    -4714.423 
  126000    4843.3339    402.16215   -683.18764    407.58145   -611.32666   -203.74521    -252.0022   -64.697186    4922.4739   -1550.9553    116.65522    195.28754    627.68589            0    939.62864    -6408.732   -45.460554      16.9073      16.9207      16.9298            0            0            0    2539.2338   -288.74007      269.647    4826.1927   -2714.5952   -4161.1605 
  127000    4843.3339    379.22249    1118.9112    384.33267   -597.36814   -213.03547   -134.00112   -69.495428      4959.96   -1523.0895    123.71941    177.22057    624.78142            0     925.7214   -6413.5541   -45.460554      16.9073      16.9207      16.9298            0            0            0   -1304.5128    3287.2971   -3918.2973    82.379659    1605.6438    1668.7102 
  128000    4843.3339    370.70644   -3794.5248    375.70186   -626.59126    -250.8894   -518.91587   -70.565397    4905.3843   -1572.8617     117.4003    211.48697    617.38316            0    946.27043   -6407.6806   -45.460554      16.9073      16.9207      16.9298            0            0            0   -3058.6884    2857.3905   -3810.6383    1301.8852   -7983.1493   -4702.3104 
  129000    4843.3339    387.65285    6295.0289    392.87663   -629.37198   -236.49534    208.15439   -56.318295    4918.7112   -1548.2954     120.6457    177.41807    620.85968            0    918.92346   -6410.6883   -45.460554      16.9073      16.9207      16.9298            0            0            0    531.33593    -2478.924   -1819.9503    5743.3201    1604.0844    11537.682 
  130000    4843.3339    371.37898   -1737.6442    376.38347   -626.70728   -250.32381   -373.06241   -57.888414    4873.1149   -1594.0051    135.94537    201.70611    629.64633            0    967.29781   -6409.2316   -45.460554      16.9073      16.9207      16.9298            0            0            0    722.96834    760.73214    279.85305   -3565.2178    2094.5669   -3742.2816 
  131000    4843.3339     380.4061    125.42708    385.53224   -556.21559   -170.68335    -161.8238   -71.659998     4947.161    -1532.955    146.49981    205.69447    624.54514            0    976.73942    -6408.456   -45.460554      16.9073      16.9207      16.9298            0            0            0   -1971.5063    1548.0951    -2859.639    2093.9197   -818.03592   -899.60253 
  132000    4843.3339    383.56654   -882.29848    388.73526   -613.25197   -224.51671   -286.83791   -57.109854    4915.5938   -1547.7706    137.60668    173.66068    623.25128            0    934.51864   -6406.2545   -45.460554      16.9073      16.9207      16.9298            0            0            0    1307.5635    671.42018    2169.9989    2241.1733   -4687.8561   -200.21264 
  133000    4843.3339    386.08476   -106.39187    391.28742   -613.38577   -222.09835   -229.61335   -84.829129    4938.9212   -1556.6198    125.90452    197.81169     619.5178            0    943.23401   -6410.7119   -45.460554      16.9073      16.9207      16.9298            0            0            0   -1866.2857   -3375.0243     799.9675   -608.49628    3075.4369   -2786.1163 
  134000    4843.3339     351.5102    1347.5482    356.24694   -624.98209   -268.73514     -173.551   -57.991619    4923.7449    -1540.139    108.66302     176.3849    630.10898            0     915.1569   -6405.8923   -45.460554      16.9073      16.9207      16.9298            0            0            0    6129.6306   -3240.8066   -1529.5216    5445.6552    -2904.475    1501.4643 
  135000    4843.3339    378.33911    7391.6503    383.43739   -616.38712   -232.94974    289.15991   -66.392309    4922.1867   -1555.6074    128.22412    192.33073    618.66538            0    939.22023   -6411.4017   -45.460554      16.9073      16.9207      16.9298            0            0            0    1138.1325    434.40463    1161.3175    6195.2747    6136.2087    9843.4675 
  136000    4843.3339    388.84423    58.805629    394.08407   -603.10799   -209.02393   -204.87019   -72.544762    4950.7751    -1533.988    124.69009    178.38162    627.80825            0    930.87996   -6412.2183   -45.460554      16.9073      16.9207      16.9298            0            0            0    1542.4759   -5159.2811   -2274.9262   -1405.9001   -460.57141    2042.8883 
  137000    4843.3339    362.50346    2039.7348    367.38835   -632.60256   -265.21421   -121.13743   -26.362104    4882.6783   -1557.2703    106.39396     196.4534    621.82035            0    924.66771   -6413.5865   -45.460554      16.9073      16.9207      16.9298            0            0            0    3431.7435    612.88438   -213.72663    1826.2003    3648.7007    644.30344 
  138000    4843.3339      380.726    1296.2024    385.85644   -638.00665    -252.1502   -160.59288   -90.917524    4940.9381   -1565.6285    112.91462    192.11298    622.59423            0    927.62183   -6415.6491   -45.460554      16.9073      16.9207      16.9298            0            0            0   -1224.3796   -555.30838    1108.2457   -1189.9305    8221.8415   -3143.3039 
  139000    4843.3339    361.73245   -27.768793    366.60694   -644.63541   -278.02846   -279.98992   -38.250639    4902.9002   -1551.3969    122.90696    152.81042     631.0441            0    906.76148   -6416.0464   -45.460554      16.9073      16.9207      16.9298            0            0            0   -2473.2207    2388.1599    25.332021   -1711.4833    4749.9163   -3121.7394 
  140000    4843.3339    363.27222   -971.60855    368.16746   -618.90384   -250.73638     -319.366    -86.90985    4957.3419   -1539.3626    119.27196    171.20272    629.98409            0    920.45877   -6409.7947   -45.460554      16.9073      16.9207      16.9298            0            0            0    189.31755    -4429.978    284.27489   -4236.6388    1279.6398    42.173399 
  141000    4843.3339    388.36086    890.81242    393.59419   -644.60221   -251.00802   -188.08543   -61.406935    4888.2935   -1585.9973      122.379    190.85239    628.16372            0    941.39511   -6412.8839   -45.460554      16.9073      16.9207      16.9298            0            0            0   -605.20622    1703.9109    6427.6177    1679.7118    3320.6979   -2327.9724 
  142000    4843.3339    365.10766    -443.3806    370.02764   -652.32082   -282.29318    -313.6114   -67.447158      4910.34   -1571.0297    115.54803    177.39439    625.76648            0     918.7089   -6413.9226   -45.460554      16.9073      16.9207      16.9298            0            0            0   -1061.5939    -4749.762   -2384.8786   -2935.0491   -1770.8726    3375.7799 
  143000    4843.3339    386.11561    2580.3894    391.31868   -615.04335   -223.72467   -41.458721   -68.025613    4922.1402   -1558.5177    124.57124    190.72991    628.17318            0    943.47433   -6412.6323   -45.460554      16.9073      16.9207      16.9298            0            0            0   -1638.8503    2178.5349    4328.4195    3280.8416    3155.9478    1304.3788 
  144000    4843.3339    345.55432   -3556.2241    350.21081   -617.42075   -267.20994   -518.40403   -69.666046     4904.032      -1575.8    117.94249    212.92123    627.51555            0    958.37928    -6410.166   -45.460554      16.9073      16.9207      16.9298            0            0            0   -392.94492    3579.3255    -3716.897   -6199.0059   -1696.1729   -2773.4935 
  145000    4843.3339    369.02699    -4291.914    373.99979    -630.4594   -256.45961    -559.6192   -86.629752    4929.3821   -1563.1692    129.07569    170.77323    632.86085            0    932.70977   -6405.9216   -45.460554      16.9073      16.9207      16.9298            0            0            0   -2016.4369   -63.281664   -4422.1154   -1971.0897   -2849.4324   -8055.2199 
  146000    4843.3339    340.57844   -2905.4808    345.16787   -639.71123   -294.54336   -499.77216   -68.783946    4916.1977   -1562.6954    123.93071    167.29656    631.75692            0    922.98419   -6410.1092   -45.460554      16.9073      16.9207      16.9298            0            0            0    1185.9052   -3399.0089   -2554.0039   -1186.3267    726.79831    -8256.914 
  147000    4843.3339    376.44244   -3789.4569    381.51516   -621.18854   -239.67338   -507.34188   -71.477253    4924.1773   -1551.9625    124.06517    182.02332    624.68549            0    930.77398   -6404.6625   -45.460554      16.9073      16.9207      16.9298            0            0            0   -3084.6737   -2351.9416    2017.2849   -1168.2563   -3367.4294   -6832.6849 
  148000    4843.3339    368.04448   -3234.7531    373.00404   -641.70436   -268.70032   -497.18729   -57.035461    4875.1274   -1590.3687    126.92078    199.39917    622.34435            0    948.66431   -6408.4606   -45.460554      16.9073      16.9207      16.9298            0            0            0    2526.6665   -159.32523    -3716.419   -4038.7702   -3004.8632   -2660.6261 
  149000    4843.3339    330.65464    3451.4046    335.11035   -621.96171   -286.85136     -43.0612   -81.776605    4946.6146   -1546.5937    121.77799    187.52522    615.32875            0    924.63196   -6411.4316   -45.460554      16.9073      16.9207      16.9298            0            0            0     3196.938    -316.7235   -859.85707     5012.215    1193.7195    4148.2793 
  150000    4843.3339    393.86139    2073.2176    399.16883   -624.83751   -225.66868   -79.226834   -41.718493    4919.5427   -1533.4934    119.53417    165.35362    623.76807            0    908.65586   -6411.3175   -45.460554      16.9073      16.9207      16.9298            0            0            0    2561.0113    2178.2754   -680.42274    5107.3275    1642.4262     -530.101 
  151000    4843.3339    376.05703   -2060.8628    381.12456    -596.7801   -215.65554    -361.2247   -61.088186    4935.6115   -1530.7309    129.84727    180.86211    623.24146            0    933.95085   -6405.2542   -45.460554      16.9073      16.9207      16.9298            0            0            0    1357.9075    110.95687    -4509.364   -4947.4877    1129.9301   -2365.0308 
  152000    4843.3339     363.7634   -2785.1378    368.66526   -640.54514   -271.87988   -468.60825   -86.154179    4931.1954    -1567.704    124.96646    183.36121    618.83117            0    927.15883   -6412.7452   -45.460554      16.9073      16.9207      16.9298            0            0            0     2895.154   -4542.2394    -2865.672    1566.9422   -6653.6766    -3268.679 
  153000    4843.3339    360.58082    1135.3491    365.43979   -634.83065   -269.39086   -189.19541   -74.234012    4933.5097   -1554.1519    118.75545    182.70026    617.86558            0    919.32129   -6413.4276   -45.460554      16.9073      16.9207      16.9298            0            0            0   -1057.5373     5517.979    3742.0967   -815.59723    2322.0447    1899.5999 
  154000    4843.3339    361.62743    -3100.065    366.50051   -628.00285   -261.50234   -480.47561   -72.012427    4924.1242   -1559.2884    115.12659    199.94023     616.2187            0    931.28551   -6411.4001   -45.460554      16.9073      16.9207      16.9298            0            0            0    2658.7101   -146.84949    2000.7985   -3457.5933    496.98545   -6339.5872 
  155000    4843.3339    393.31179    981.19032    398.61183   -613.06129   -214.44946   -145.14303   -67.260052    4931.0868   -1546.9309      122.253    190.41029    621.20631            0     933.8696   -6410.7577   -45.460554      16.9073      16.9207      16.9298            0            0            0   -1713.0694   -858.83791    3823.9646    6278.4661    806.02168   -4140.9168 
  156000    4843.3339    357.60388    4942.7344    362.42275   -616.90777   -254.48503    94.645302   -63.832619    4902.4804    -1569.212      116.668    206.52548     629.1107            0    952.30419   -6407.8597   -45.460554      16.9073      16.9207      16.9298            0            0            0   -2780.1272   -3361.8797   -1957.8808    2464.2738    6821.3887    5542.5406 
  157000    4843.3339    363.01285   -3821.4624     367.9046   -632.94769   -265.04309    -534.9723   -71.075013    4937.2973   -1544.4187    122.78255    170.61096    618.07753            0    911.47104    -6410.641   -45.460554      16.9073      16.9207      16.9298            0            0            0    663.48282   -770.22038   -2348.6955   -5039.1168   -7086.6772    661.40683 
  158000    4843.3339    360.88005    2354.7232    365.74306   -620.70823   -254.96517   -88.639157   -61.789826    4908.9818    -1557.343     123.9248    189.51531    623.19465            0    936.63475   -6404.5349   -45.460554      16.9073      16.9207      16.9298            0            0            0   -2484.4287   -3465.0432    671.15514    2663.9888    5037.2881   -637.10712 
  159000    4843.3339     398.5567    1173.1665    403.92742   -647.17277   -243.24536   -160.37867   -84.914548    4916.2766   -1580.8317    124.00739    185.30364    624.34788            0    933.65891   -6412.1937   -45.460554      16.9073      16.9207      16.9298            0            0            0    1496.7114   -847.13711    153.91581   -2025.3508    4966.0055    578.84472 
  160000    4843.3339    367.77024    1507.6956    372.72609   -617.30052   -244.57443   -138.07826   -77.043372    4946.0439   -1534.6239    119.76534    169.49385    628.06418            0    917.32337   -6403.6245   -45.460554      16.9073      16.9207      16.9298            0            0            0   -1091.0019    3302.0518    3038.2385    541.79034   -255.57922    4236.8757 
  161000    4843.3339    382.65439    1888.5388    387.81082    -635.5821   -247.77128   -114.37423   -84.032231    4950.8161   -1540.4769    109.88385    176.00369    619.00724            0    904.89477   -6407.2607   -45.460554      16.9073      16.9207      16.9298            0            0            0    188.39747   -1186.4277    252.44681    3599.6359    753.77285    1312.2078 
  162000    4843.3339    368.07496    2323.3171    373.03493   -619.45841   -246.42348   -82.315847   -82.474085    4923.8757    -1569.667    122.16668    192.80636    635.23552            0    950.20856   -6411.0686   -45.460554      16.9073      16.9207      16.9298            0            0            0   -2683.6218    1023.5681    -1895.863    769.93412    4998.7175    1201.2997 
  163000    4843.3339    364.82151   -2793.6452    369.73763   -639.73159   -269.99396   -467.32325   -64.443786    4916.1204   -1560.5667    130.33592    170.09496    620.40427            0    920.83514   -6412.2433   -45.460554      16.9073      16.9207      16.9298            0            0            0   -3040.9596   -1918.1775    2941.6692   -2171.9295    2213.0259   -8422.0321 
  164000    4843.3339     368.4275    425.88101    373.39221   -614.74214   -241.34993    -211.2678   -32.881665    4883.1305   -1560.0587    120.98295    200.75859    623.57503            0    945.31657   -6410.3075   -45.460554      16.9073      16.9207      16.9298            0            0            0    854.04102   -1337.4977   -3942.0071   -1644.1873    5056.7211   -2134.8908 
  165000    4843.3339    393.50907    861.54094    398.81177   -615.53947    -216.7277   -155.87271   -77.198467     4957.018   -1535.1269    121.85741    171.91114    625.81885            0     919.5874   -6414.9464   -45.460554      16.9073      16.9207      16.9298            0            0            0    2680.5255    148.98894    1140.1892   -11.837602   -828.73015    3425.1906 
  166000    4843.3339     359.3678   -4544.2029    364.21043    -650.6435   -286.43307    -607.4131   -68.822204    4909.8611   -1563.0877     124.9346    167.92255    619.58705            0    912.44419   -6404.1266   -45.460554      16.9073      16.9207      16.9298            0            0            0    3791.6689    3144.7114    1123.3769   -4416.1928   -4683.1432   -4533.2727 
  167000    4843.3339    387.30626   -3943.4583    392.52538   -643.88683   -251.36146   -529.90786   -83.281862    4945.8916   -1551.9097    110.32019    166.18544    631.51728            0    908.02291   -6414.5195   -45.460554      16.9073      16.9207      16.9298            0            0            0   -1639.1872    -1442.841   -460.28804   -3476.9466   -8970.3118    616.88337 
  168000    4843.3339    394.70588    1805.0925     400.0247   -665.80155   -265.77685   -138.27404    -83.63457    4897.2986   -1596.7925    128.60519    177.99583    624.38991            0    930.99094   -6410.4565   -45.460554      16.9073      16.9207      16.9298            0            0            0    1996.7066    1813.3287    1633.2548   -4504.2308    8057.8393    1861.6691 
  169000    4843.3339    373.13349   -4561.5207    378.16162   -611.72921    -233.5676   -555.77087   -87.964516    4945.8797    -1553.748    132.50573    182.22562    627.28742            0    942.01877   -6411.6631   -45.460554      16.9073      16.9207      16.9298            0            0            0    1325.2996   -3832.3072   -1151.6099   -3111.5602   -3597.7719   -6975.2299 
  170000    4843.3339    380.34488   -3323.5978    385.47019   -616.89561   -231.42542   -466.18794   -83.681137    4911.1789   -1582.8466    131.34501      210.446    624.15997            0    965.95099   -6410.3444   -45.460554      16.9073      16.9207      16.9298            0            0            0   -2813.5099    4586.8107   -1185.4241   -1149.7123   -4718.5814   -4102.4997 
  171000    4843.3339    352.45083    2619.5083    357.20025   -622.79951   -265.59926   -80.570142   -80.898108    4941.9828   -1549.9203     111.1447    195.61054    620.36557            0     927.1208    -6411.005   -45.460554      16.9073      16.9207      16.9298            0            0            0    3925.9536   -1048.7536    428.14935     2611.936    1893.6173    3352.9714 
  172000    4843.3339    361.09872   -1241.5925    365.96468   -593.40847   -227.44379   -315.14375   -74.917049    4966.1767   -1518.6141    123.21953    185.03849    616.94757            0    925.20559   -6409.8737   -45.460554      16.9073      16.9207      16.9298            0            0            0    1330.2707   -1383.5123    779.00064   -2253.5451    -426.6181   -1044.6144 
  173000    4843.3339    370.65878    631.32681    375.65356   -633.84052   -258.18696   -213.59315   -65.428607    4895.4283   -1581.0079    129.71587    188.89987    628.55169            0    947.16742   -6411.0076   -45.460554      16.9073      16.9207      16.9298            0            0            0   -3431.9617   -1935.7211    1816.6015     -978.571   -1573.1413    4445.6927 
  174000    4843.3339    400.93761    1541.2847    406.34041   -632.86025   -226.51984    -117.6511   -54.033035    4900.1206   -1562.6428     124.7914    190.78533     614.2058            0    929.78253   -6408.7303   -45.460554      16.9073      16.9207      16.9298            0            0            0   -1704.3175   -265.97925    844.89239    1137.8561    3964.3136    -478.3155 
  175000    4843.3339     387.3092    1966.3325    392.52835   -631.70704   -239.17869   -100.28668    -49.10055    4910.3986   -1546.8885    115.43225    179.86503     619.8842            0    915.18147   -6408.1866   -45.460554      16.9073      16.9207      16.9298            0            0            0    2514.3818   -654.66714   -753.35134    1034.5134    478.35172    4386.1323 
  176000    4843.3339    358.70127    1031.3824    363.53492   -646.60944   -283.07452   -210.22276   -94.234069    4943.2545   -1561.6924    113.14782     195.1101    606.82503            0    915.08295   -6410.7129   -45.460554      16.9073      16.9207      16.9298            0            0            0   -2087.6624   -2092.7251    311.65374    993.74026    5435.7029   -3335.2959 
  177000    4843.3339    374.35979   -526.18389    379.40444   -643.81176   -264.40732   -301.57435   -58.475417     4909.313   -1561.1968    125.09148    177.05626     615.2373            0    917.38503   -6412.0343   -45.460554      16.9073      16.9207      16.9298            0            0            0    -2488.511    1768.3114    2097.4751   -2396.2348   -1023.6292    1841.3123 
  178000    4843.3339    376.19572   -1944.0734    381.26511   -653.35875   -272.09364   -409.41338   -115.34088    4952.2374   -1572.6988    127.24864    175.56262    616.52878            0    919.34005   -6409.5953   -45.460554      16.9073      16.9207      16.9298            0            0            0   -3796.6867    789.67357   -3381.0945   -2814.0813     -731.039   -2287.0999 
  179000    4843.3339     392.3051   -7674.7178    397.59158   -640.75812   -243.16655   -785.27068   -90.302843    4902.0981   -1597.8365    137.49259    192.64914    626.93669            0    957.07842   -6409.6318   -45.460554      16.9073      16.9207      16.9298            0            0            0   -5737.6091   -3512.3991   -1223.1682   -5974.7652   -10072.799   -6976.5892 
  180000    4843.3339    353.76192   -3526.5106    358.52901   -640.76668   -282.23767   -531.33295   -71.935565    4900.9429   -1581.2993     121.9656    200.88373    617.68331            0    940.53264   -6410.3067   -45.460554      16.9073      16.9207      16.9298            0            0            0    18.133669    -2574.284    473.27178   -2472.7624   -7460.1266   -646.64277 
  181000    4843.3339    334.25133    33.446531    338.75551    -653.6393   -314.88379    -312.5213   -76.905703    4926.2961   -1558.7809    117.56179     167.9213    619.65847            0    905.14157   -6408.1713   -45.460554      16.9073      16.9207      16.9298            0            0            0   -154.46112     1877.292   -2458.5984     6952.187     2181.918   -9033.7653 
  182000    4843.3339    401.04655   -753.07075    406.45082   -653.19008   -246.73926   -299.93246   -79.831796    4917.4102   -1571.4463     135.6608    159.53386    623.06158            0    918.25625   -6409.0247   -45.460554      16.9073      16.9207      16.9298            0            0            0   -149.04792   -1399.2104   -3530.5026    3683.8644   -7507.7663    1564.6897 
  183000    4843.3339    361.77216   -4652.7588    366.64719   -640.40507   -273.75788   -602.40576   -71.336696    4925.4701   -1556.5745    107.23811    172.31297    636.61832            0    916.16941   -6410.7079   -45.460554      16.9073      16.9207      16.9298            0            0            0    1042.8475   -2713.6904    1807.2825   -7391.4483    -5212.827    -1354.001 
  184000    4843.3339    399.06073    6762.1047    404.43824    -648.0576   -243.61936    234.02229   -78.784706    4910.6251    -1581.273    110.22683    198.29868     624.6899            0    933.21541   -6413.1134   -45.460554      16.9073      16.9207      16.9298            0            0            0   -103.86853    3041.4792     3287.402    6679.7656    6267.4124    7339.1361 
  185000    4843.3339    370.88521   -3018.6215    375.88304   -612.29499   -236.41194   -449.63245   -50.201174    4901.2918   -1557.2863    132.10395    186.76019     626.1272            0    944.99134    -6408.377   -45.460554      16.9073      16.9207      16.9298            0            0            0   -1507.7732    -770.3361   -1454.4485   -4233.1697    2509.1187   -7331.8136 
  186000    4843.3339    354.45592   -988.59525    359.23237   -625.80473   -266.57237   -336.40185   -85.802702    4970.1077   -1527.5185    118.17113      152.653    630.88959            0    901.71372   -6411.8235   -45.460554      16.9073      16.9207      16.9298            0            0            0    2184.8557    4994.5036    1644.5711     1229.187    -3336.882   -858.09079 
  187000    4843.3339    387.37044   -794.33364    392.59042    -618.7397   -226.14928   -282.25708   -89.254212    4946.5253    -1554.121    115.35995    194.06226    625.95912            0    935.38132   -6411.3921   -45.460554      16.9073      16.9207      16.9298            0            0            0   -2983.5701    3281.9593   -3261.2056   -756.19746    323.18236   -1949.9858 
  188000    4843.3339    342.16542   -24.652825    346.77624    -651.7646   -304.98835   -306.72971   -81.948237      4930.57   -1560.9466    114.72045    162.89124    631.57032            0    909.18201   -6409.5684   -45.460554      16.9073      16.9207      16.9298            0            0            0    634.87989    2572.9338    1558.6265    -1720.477   -3484.3437    5130.8622 
  189000    4843.3339    410.65355   -799.69932    416.18728   -633.70186   -217.51457   -274.00138   -72.473564    4925.8893    -1558.949    131.72068    178.54309    614.98337            0    925.24714   -6412.3648   -45.460554      16.9073      16.9207      16.9298            0            0            0    -3968.815   -156.79209   -2543.0974   -150.51897    309.33929   -2557.9183 
  190000    4843.3339    391.64555    1660.5782    396.92314   -593.03028   -196.10714     -78.8121    -56.14774     4900.649   -1560.2984    138.21337    205.91637    623.13835            0    967.26808   -6404.7996   -45.460554      16.9073      16.9207      16.9298            0            0            0     766.5237    2020.0116   -4504.0278    5547.3557    266.84002   -832.46108 
  191000    4843.3339    353.26203    18.488784    358.02238   -609.43776   -251.41538   -250.10943   -64.983086    4919.2235   -1546.3904    124.31832    184.64927    627.98505            0    936.95264   -6400.6308   -45.460554      16.9073      16.9207      16.9298            0            0            0   -2993.8201    614.38121    5526.7849     5274.693   -3998.5775   -1220.6492 
  192000    4843.3339    375.32864   -1647.9811    380.38635   -647.69455    -267.3082   -383.71344   -91.367191    4914.8172   -1586.4813    103.38103    205.21669    630.18899            0    938.78671   -6409.9313   -45.460554      16.9073      16.9207      16.9298            0            0            0    3148.5825   -1236.4402    922.67277    1431.2222   -3378.3575   -2996.8081 
  193000    4843.3339    403.08593   -3149.1547    408.51768   -612.51219   -203.99451   -426.43524   -73.633824    4911.5157   -1565.5806    130.57326    204.07657    618.41857            0     953.0684   -6403.4625   -45.460554      16.9073      16.9207      16.9298            0            0            0   -2107.7665   -3442.4819     157.8436    -842.5071   -1159.6107   -7445.3464 
  194000    4843.3339    376.70647    2768.8613    381.78274   -646.65534   -264.87259   -69.293915   -69.031551    4910.6625   -1570.3781    118.94107    184.83487    619.94678            0    923.72272    -6412.009   -45.460554      16.9073      16.9207      16.9298            0            0            0    757.39944   -2889.3767    2190.5181     2696.305    2717.4607    2892.8182 
  195000    4843.3339    365.93096    3948.0283    370.86203   -645.83902   -274.97699     3.892218   -56.755801    4888.3362   -1574.3971    107.27734    199.17477    622.10601            0    928.55812   -6405.9776   -45.460554      16.9073      16.9207      16.9298            0            0            0    2228.1347    519.61521   -138.82664    3159.6378    2405.4645    6278.9826 
  196000    4843.3339    378.50232   -686.90465     383.6028   -633.96491   -250.36211   -298.88166   -77.503686     4942.804   -1539.3516    119.34065    163.52861    622.51745            0    905.38671   -6404.6519   -45.460554      16.9073      16.9207      16.9298            0            0            0    1703.7411   -1712.7843   -206.17097   -1376.4767   -5799.8004    5115.5631 
  197000    4843.3339    388.93136   -916.57444    394.17237   -603.00462   -208.83225   -273.57454   -49.973768    4889.8269   -1572.2184    142.77849      203.849    622.58632            0    969.21381   -6412.0716   -45.460554      16.9073      16.9207      16.9298            0            0            0   -1737.2542   -941.99729   -106.61446   -6119.7064   -1502.8864    4872.8695 
[...]
 9955000    4843.3339    376.44756    701.87382    381.52035   -621.44745    -239.9271   -190.35021   -102.89857    4972.8115   -1537.4786    112.64063    174.10818    629.28238            0    916.03119   -6407.3915   -45.460554      16.9073      16.9207      16.9298            0            0            0   -2746.3614   -1306.8017    1095.1655     4267.192   -3813.8325     1652.262 
 9956000    4843.3339    367.99696    1144.8346    372.95587   -601.42617    -228.4703   -147.60484   -66.757076    4942.4321   -1533.3995    114.39038     195.0386    622.54437            0    931.97335   -6409.0746   -45.460554      16.9073      16.9207      16.9298            0            0            0    2410.9588   -4682.0559   -1732.8932   -1098.8137    6906.6028   -2373.2852 
 9957000    4843.3339    378.45771   -4086.1451    383.55758   -637.73653   -254.17895   -542.80404   -76.227186    4903.0316   -1579.9359    127.48193    192.01159    622.70587            0    942.19939   -6406.7403   -45.460554      16.9073      16.9207      16.9298            0            0            0    923.50361   -1224.6813    3635.8459   -4777.6854   -3066.9619    -4413.788 
 9958000    4843.3339      387.729    891.96993    392.95381   -630.29023   -237.33642   -174.33207   -86.902971    4944.6641    -1546.207    128.46242    163.28597    624.16834            0    915.91673   -6403.9681   -45.460554      16.9073      16.9207      16.9298            0            0            0    959.16069    1769.0156    2704.2898   -5630.2409    5828.8706      2477.28 
 9959000    4843.3339    369.80389   -1043.7742    374.78715   -590.34686    -215.5597   -289.28675   -98.953809    4968.6712   -1539.5822      113.283    210.05953    625.89282            0    949.23535   -6409.2996   -45.460554      16.9073      16.9207      16.9298            0            0            0   -2314.5734    43.245311    593.38188    153.93926    16.316504   -3301.5783 
 9960000    4843.3339    341.09757    8032.3155      345.694   -600.27739   -254.58339    312.77968   -43.057036    4927.7711   -1526.9073    115.29028    180.57672    630.76291            0    926.62991   -6411.6214   -45.460554      16.9073      16.9207      16.9298            0            0            0   -2962.1656   -746.09608     545.8094    11193.412    7853.8852    5049.6498 
 9961000    4843.3339    381.55361   -3145.3321     386.6952   -628.73606   -242.04085   -464.21156   -90.850484    4921.4897   -1577.3211     120.3416    199.00541      629.238            0    948.58501   -6407.9602   -45.460554      16.9073      16.9207      16.9298            0            0            0   -1998.8937   -3350.5684   -2634.4159    974.59466   -7563.2776   -2847.3133 
 9962000    4843.3339    378.51072    74.310295    383.61131    -643.0237   -259.41239   -254.16347   -64.137398    4911.1015   -1561.3528    112.96029    182.94874    622.42011            0    918.32914   -6408.3169   -45.460554      16.9073      16.9207      16.9298            0            0            0    1539.5726   -1727.4264   -2745.4102   -1771.7257    3776.0743   -1781.4177 
 9963000    4843.3339    363.48461    263.90912    368.38272   -629.33796   -260.95524     -242.314   -74.396035    4929.3294   -1555.4139    124.49634     178.3047    623.27494            0    926.07598   -6410.3473   -45.460554      16.9073      16.9207      16.9298            0            0            0   -299.46258    2980.9241    1351.3293    66.571858    3983.5804   -3258.4249 
 9964000    4843.3339    390.64327    971.38085    395.90735   -600.80213   -204.89478   -136.28124   -43.997754    4899.9137   -1550.2053    124.50519    199.62627    625.27168            0    949.40314   -6406.1212   -45.460554      16.9073      16.9207      16.9298            0            0            0   -123.14776   -1153.8393    312.34918    572.56188     945.5407      1396.04 
 9965000    4843.3339    350.57452   -149.08483    355.29866   -638.76533   -283.46667   -293.99729   -58.346572    4941.5633   -1523.8762    107.31865    161.68977    616.10247            0    885.11089    -6407.093   -45.460554      16.9073      16.9207      16.9298            0            0            0   -755.77846    2725.7136    1056.5345   -3364.8663   -2169.5674    5087.1792 
 9966000    4843.3339    387.87621   -1923.9572    393.10301   -612.84374   -219.74074   -355.63956   -74.299694    4967.9932   -1515.4481    116.68133     163.1581    622.76491            0    902.60434   -6409.1416   -45.460554      16.9073      16.9207      16.9298            0            0            0    -3301.032   -1779.1427    2722.0866    1312.5942   -2557.6487   -4526.8171 
 9967000    4843.3339    363.93303    3183.3427    368.83718   -612.78431   -243.94713    -19.09154   -40.764203    4937.7163   -1510.0423    113.72616    162.05387      621.478            0    897.25803   -6406.9944   -45.460554      16.9073      16.9207      16.9298            0            0            0   -583.29739   -397.07678   -964.63042    1367.9936    9334.7848   -1152.7504 
 9968000    4843.3339    382.98698   -4926.2863    388.14789   -616.88378   -228.73589    -576.7044   -70.581856    4915.9014   -1559.0889    117.58108    199.08093    625.54316            0    942.20517   -6404.4085   -45.460554      16.9073      16.9207      16.9298            0            0            0   -2496.9519   -1468.4806    -2467.914    -4296.046   -3792.7044   -6690.1085 
 9969000    4843.3339    356.22984   -2849.8277    361.03019   -635.01303   -273.98285   -475.28059   -52.131365    4919.3913   -1541.7979    113.16924    172.61382    621.00178            0    906.78484   -6409.0578   -45.460554      16.9073      16.9207      16.9298            0            0            0    2996.0685   -184.93305   -428.99222   -6337.9267   -4015.1314    1803.5751 
 9970000    4843.3339    378.23439    1657.9452    383.33126   -612.38209   -229.05083   -111.94177   -53.678492     4917.388   -1539.5715    112.24086    193.17036    621.77824            0    927.18946   -6403.2811   -45.460554      16.9073      16.9207      16.9298            0            0            0   -573.96419    764.81941    1078.1501    2410.8193    7345.7297   -4782.7136 
 9971000    4843.3339    389.39465    3900.6307    394.64191   -580.87621    -186.2343    89.286965   -86.335044    4957.0326    -1531.022     121.9428    206.22117    621.98186            0    950.14583   -6401.7196   -45.460554      16.9073      16.9207      16.9298            0            0            0   -890.52829    2914.7915    1815.0701    5531.7546    1806.3335    4363.8039 
 9972000    4843.3339    369.30952   -2001.8346    374.28612   -634.87981   -260.59369   -401.99339   -82.388046    4920.0623   -1569.7098    120.89687    198.09263    615.84052            0    934.83002    -6407.384   -45.460554      16.9073      16.9207      16.9298            0            0            0   -219.48379    890.99355   -2341.8192   -792.02875    -5369.991    156.51603 
 9973000    4843.3339    372.13033    3949.0551    377.14494    -634.9713   -257.82636    21.115373   -32.126405     4928.734   -1516.7059    97.569778    156.85099    627.31381            0    881.73458   -6413.3134   -45.460554      16.9073      16.9207      16.9298            0            0            0    4929.2694   -1529.7991   -1414.1943    7282.2925    348.03292    4216.8398 
 9974000    4843.3339    361.92089   -226.84627    366.79793   -601.32567   -234.52774   -250.55104   -75.698492    4935.9443   -1545.8174    127.85474    199.79957    616.83745            0    944.49176   -6406.0633   -45.460554      16.9073      16.9207      16.9298            0            0            0   -818.15899    -1293.077   -228.26094    484.87526    -1908.926    743.51198 
 9975000    4843.3339    350.24178    1792.3041    354.96143   -627.68604   -272.72461    -146.1251    -64.65101    4933.0071   -1542.6254    108.33711    182.35809    624.24411            0    914.93931   -6410.9814   -45.460554      16.9073      16.9207      16.9298            0            0            0    5864.7915   -661.12962     4148.864    3217.5506    3829.2966   -1669.9348 
 9976000    4843.3339    397.19166    3257.3291    402.54399   -627.86143   -225.31744    4.7641858   -75.367372    4934.4512   -1547.9119     114.8911    177.47744     627.6819            0    920.05045   -6406.9957   -45.460554      16.9073      16.9207      16.9298            0            0            0    -2020.228     2027.812     979.7118    8253.2717    1757.0287   -238.31299 
 9977000    4843.3339    380.85951   -2198.7235    385.99175   -629.41014   -243.41839   -398.72535   -76.117936    4931.8787   -1554.0049    107.92183    195.39933    621.27357            0    924.59473   -6409.7656   -45.460554      16.9073      16.9207      16.9298            0            0            0    850.58858    4020.1804    164.88759   -2474.9928   -1579.7931   -2541.3847 
 9978000    4843.3339    358.80101   -1490.0487      363.636   -633.73471   -270.09871   -375.34838   -86.476646    4944.1631    -1549.395    122.08724     167.4422    626.13084            0    915.66029   -6407.0814   -45.460554      16.9073      16.9207      16.9298            0            0            0   -288.24944    3440.0466   -2048.2144   -6953.5799    5047.7544   -2564.3207 
 9979000    4843.3339    371.16809     410.8079    376.16974   -630.17255   -254.00281   -224.98537   -83.400655    4938.1042   -1551.3757    115.75232    186.71674    618.73411            0    921.20316   -6406.0792   -45.460554      16.9073      16.9207      16.9298            0            0            0    1341.8144     2700.432   -963.41228    4570.5274    490.27157   -3828.3753 
 9980000    4843.3339    366.00024   -3089.0261    370.93225   -637.16764   -266.23539   -484.42893   -73.264615    4927.9943   -1558.0393    118.50228    172.75964    629.60978            0    920.87171    -6412.769   -45.460554      16.9073      16.9207      16.9298            0            0            0    -2146.938    574.31357   -780.67139   -6444.2752    742.95016   -3565.7534 
 9981000    4843.3339    379.01936    239.42279     384.1268   -664.61097   -280.48417   -263.57253    -69.66064    4880.3541   -1601.2865    117.46844    196.70936    622.49774            0    936.67554     -6411.98   -45.460554      16.9073      16.9207      16.9298            0            0            0   -2011.1052    1045.4988    2416.4315    3538.0778   -1825.2493   -994.56008 
 9982000    4843.3339    390.73679   -3322.5349    396.00213   -625.12114   -229.11901   -463.80645   -50.754146    4855.8603   -1599.2006    127.35236    221.37984    625.34726            0    974.07947   -6404.3068   -45.460554      16.9073      16.9207      16.9298            0            0            0    3627.4326   -1746.7296    531.30057   -3798.7173   -1479.3075   -4689.5799 
 9983000    4843.3339    363.15949   -1030.3383    368.05321   -600.67333   -232.62012   -305.39813   -65.656797     4929.213   -1543.0909     118.3096    197.14532    626.96261            0    942.41754   -6406.6471   -45.460554      16.9073      16.9207      16.9298            0            0            0    52.296441    2751.5248    227.48447   -511.54503   -1735.7922   -843.67779 
 9984000    4843.3339    396.61547   -5612.0622    401.96003   -636.64165   -234.68162   -631.08995   -66.356689    4904.4253   -1568.3277    123.26095     181.2828    627.14234            0    931.68609   -6406.3964   -45.460554      16.9073      16.9207      16.9298            0            0            0    -421.9664   -5.0844417   -477.37008    -6941.603   -9777.5098   -117.07378 
 9985000    4843.3339    370.10606    2518.9598    375.09339   -622.70772   -247.61433   -69.687459   -56.759746    4902.4615   -1557.7314    118.60429    192.84233    623.57705            0    935.02367   -6403.4332   -45.460554      16.9073      16.9207      16.9298            0            0            0   -2753.4444   -1071.3654   -2417.1389   -959.96344    2445.3031    6071.5398 
 9986000    4843.3339    395.89253    904.15341    401.22735   -614.00931   -212.78196   -148.91703   -55.401543    4926.3519   -1537.7175    143.51751    154.90837    625.28227            0    923.70815   -6408.6678   -45.460554      16.9073      16.9207      16.9298            0            0            0   -2014.1081    1988.3168    1595.1866   -1284.3611    439.40128      3557.42 
 9987000    4843.3339    361.10688     4721.086    365.97295   -641.16093   -275.18798    58.286199   -72.646079    4954.9219   -1528.0234    110.65519    162.38921    613.81806            0    886.86245   -6410.2992   -45.460554      16.9073      16.9207      16.9298            0            0            0   -1431.1177    1494.2848   -874.07444    4432.6724    5534.7064    4195.8791 
 9988000    4843.3339    366.91222   -4165.7151    371.85652   -623.76231   -251.90579   -546.15132   -104.07154    4947.0702   -1560.9542    112.50929    192.62746    632.05513            0    937.19188   -6403.9528   -45.460554      16.9073      16.9207      16.9298            0            0            0    2105.6274    1132.4511    -1293.078   -8133.7474   -1354.6774   -3008.7205 
 9989000    4843.3339    392.19252   -359.13695    397.47748   -600.68941   -203.21193   -228.57959   -82.005671    4931.1275   -1555.4898    140.07898    197.53668    617.18473            0    954.80039   -6404.6116   -45.460554      16.9073      16.9207      16.9298            0            0            0   -613.47855   -3112.1069    2712.6433   -1943.9404    2887.5307   -2021.0011 
 9990000    4843.3339    370.32799    355.76887    375.31831    -628.1878   -252.86948   -227.73973    -70.69424    4939.8324   -1539.9793    120.21507    184.45747    607.11895            0    911.79149   -6409.1174   -45.460554      16.9073      16.9207      16.9298            0            0            0    93.782609    1061.7898    729.85982    540.85504    2191.1163   -1664.6647 
 9991000    4843.3339    379.69422   -35.824268    384.81076   -591.33744   -206.52668   -209.05713   -68.424004    4940.2288   -1537.1313    144.10849     181.0241    620.66126            0    945.79385    -6408.936   -45.460554      16.9073      16.9207      16.9298            0            0            0   -2578.8145   -6072.9267    1094.4273     2098.545    4842.1604   -7048.1782 
 9992000    4843.3339    372.46462   -3157.4447    377.48374     -621.614   -244.13026   -467.15655   -66.390696    4921.2858   -1551.8547    114.13914    193.31976    622.78176            0    930.24066   -6406.7497   -45.460554      16.9073      16.9207      16.9298            0            0            0   -3366.9192     2895.939   -3241.6768    128.72395   -2998.2124   -6602.8458 
 9993000    4843.3339    400.90003   -4704.6788    406.30232   -625.74331   -219.44099   -551.75625   -79.928724    4905.8558   -1575.4464    120.03449    200.26556    629.40302            0    949.70306   -6401.3734   -45.460554      16.9073      16.9207      16.9298            0            0            0   -6988.9106   -2975.8153    1393.9235   -4670.4981   -9905.0498    461.51132 
 9994000    4843.3339    384.59093    4508.7996    389.77346   -603.80406   -214.03061    104.44871   -33.917677     4896.793   -1545.4996    119.53072    195.30489    626.85991            0    941.69552   -6408.3749   -45.460554      16.9073      16.9207      16.9298            0            0            0    1309.9812    2994.9178    2230.5416    7491.9022    2687.7079    3346.7886 
 9995000    4843.3339    381.91012   -1712.8792    387.05651   -627.09291    -240.0364   -361.02571    -71.60176    4904.0807   -1565.0738    109.78291    203.27674    624.92119            0    937.98084   -6397.5527   -45.460554      16.9073      16.9207      16.9298            0            0            0   -404.11243    1894.2949   -4210.7632   -1200.7787    -2119.919   -1817.9399 
 9996000    4843.3339    398.65322   -3307.1922    404.02524   -603.03147   -199.00623   -432.60994   -83.891063     4901.133   -1583.5703    138.88141    217.29902    624.35835            0    980.53878   -6400.8122   -45.460554      16.9073      16.9207      16.9298            0            0            0    3757.6692   -1174.7312    1567.9355   -2770.5792   -3973.9251   -3177.0722 
 9997000    4843.3339    391.73905    984.48009     397.0179   -597.76107   -200.74317   -131.20436   -76.591432    4923.1946   -1561.0474    122.56831    219.52805    621.19002            0    963.28637   -6407.6506   -45.460554      16.9073      16.9207      16.9298            0            0            0   -35.187628    296.15112   -3157.1302    532.64303   -1856.7399    4277.5372 
 9998000    4843.3339    402.94983    685.22817    408.37975   -645.67808   -237.29833    -188.8972   -48.359676    4898.1112   -1559.6215    107.24272    180.92882    625.77191            0    913.94345   -6409.3731   -45.460554      16.9073      16.9207      16.9298            0            0            0   -437.19852     4627.577    802.81372   -704.62079    2240.9919    519.31344 
 9999000    4843.3339    373.14825    3899.6617    378.17658   -633.22597   -255.04939     20.40344   -47.202288    4901.6462   -1550.4574     114.2044    170.79779    632.22927            0    917.23147   -6404.9013   -45.460554      16.9073      16.9207      16.9298            0            0            0   -2857.3938   -5638.5429   -2503.4858    154.70326    5732.3052    5811.9768 
10000000    4843.3339    355.94909    1263.0734    360.74565    -614.6211   -253.87545   -164.65818   -60.531172    4928.5258   -1538.2741    120.75907    180.79105    622.10284            0    923.65296   -6406.2687   -45.460554      16.9073      16.9207      16.9298            0            0            0    872.22882    625.71736   -3217.1575   -610.27379   -623.76579    5023.2599 
Loop time of 5999.66 on 4 procs for 10000000 steps with 341 atoms

Performance: 144.008 ns/day, 0.167 hours/ns, 1666.762 timesteps/s
92.1% CPU use with 4 MPI tasks x 1 OpenMP threads

MPI task timing breakdown:
Section |  min time  |  avg time  |  max time  |%varavg| %total
---------------------------------------------------------------
Pair    | 1472.2     | 1639.6     | 1838.5     | 335.9 | 27.33
Bond    | 183.85     | 189        | 192.54     |  23.2 |  3.15
Kspace  | 2786.1     | 2968       | 3133       | 236.3 | 49.47
Neigh   | 208.3      | 209.05     | 209.77     |   4.9 |  3.48
Comm    | 835.37     | 844.63     | 853.33     |  24.0 | 14.08
Output  | 3.9834     | 4.0446     | 4.2214     |   5.1 |  0.07
Modify  | 48.841     | 54.348     | 60.157     |  69.3 |  0.91
Other   |            | 90.91      |            |       |  1.52

Nlocal:    85.25 ave 91 max 72 min
Histogram: 1 0 0 0 0 0 0 0 1 2
Nghost:    1643.75 ave 1702 max 1588 min
Histogram: 1 0 0 1 0 1 0 0 0 1
Neighs:    9108.25 ave 10501 max 7953 min
Histogram: 1 0 1 0 0 1 0 0 0 1

Total # of neighbors = 36433
Ave neighs/atom = 106.842
Ave special neighs/atom = 5.85924
Neighbor list builds = 407874
Dangerous builds = 0


write_restart   restart.${NAME}
write_restart   restart.mol
PPPM initialization ...
  using 12-bit tables for long-range coulomb (src/kspace.cpp:332)
  G vector (1/distance) = 0.371916
  grid = 12 12 12
  stencil order = 5
  estimated absolute RMS force accuracy = 0.0291692
  estimated relative force accuracy = 8.78421e-05
  using double precision KISS FFT
  3d grid and FFT values/proc = 3211 432
write_data	data.*
PPPM initialization ...
  using 12-bit tables for long-range coulomb (src/kspace.cpp:332)
  G vector (1/distance) = 0.371916
  grid = 12 12 12
  stencil order = 5
  estimated absolute RMS force accuracy = 0.0291692
  estimated relative force accuracy = 8.78421e-05
  using double precision KISS FFT
  3d grid and FFT values/proc = 3211 432
Total wall time: 1:40:00
