LAMMPS data file
# 14 LI molecules
# 14 TF2 molecules
# 39 wat molecules

8 atom types
5 bond types
8 angle types
6 dihedral types

341 atoms
274 bonds
389 angles
420 dihedrals

    0.0000   16.9073 xlo xhi
    0.0000   16.9207 ylo yhi
    0.0000   16.9298 zlo zhi

Masses

1    6.941  # li LI
2   16.000  # o TF2
3   19.000  # f TF2
4   12.010  # c3 TF2
5   32.060  # sy TF2
6   14.010  # ne TF2
7   16.000  # oh wat
8    1.008  # ho wat

Pair Coeffs

1 0.0182660800896 2.126  # li LI
2 0.209859347635 2.960  # o TF2
3 0.0609584251392 3.118  # f TF2
4 0.10932640151 3.400  # c3 TF2
5 0.249833029536 3.564  # sy TF2
6 0.169885665734 3.250  # ne TF2
7 0.155323242893 3.165  # oh wat
8 0.0 0.000  # ho wat

Bond Coeffs

1 492.669820742  1.466  # harmonic TF2 o sy
2 363.556158739  1.344  # harmonic TF2 c3 f
3 248.732854675  1.782  # harmonic TF2 c3 sy
4 256.928561626  1.752  # harmonic TF2 ne sy
5 529.230180349  1.012  # harmonic wat ho oh

Angle Coeffs

1 41.2525855296  108.48  # harmonic TF2 c3 sy o
2 45.2700110592  121.88  # harmonic TF2 o sy o
3 43.0716472128  107.06  # harmonic TF2 ne sy o
4 81.1647052992  109.67  # harmonic TF2 f c3 sy
5 71.2114987968  107.16  # harmonic TF2 f c3 f
6 39.3938063424  103.12  # harmonic TF2 c3 sy ne
7 109.646127418  119.18  # harmonic TF2 sy ne sy
8 37.924854457  113.24  # harmonic wat ho oh ho

Dihedral Coeffs

1 0.143896516992  3 0 0.0  # charmm TF2 f c3 sy o
2 0.143896516992  3 0 0.0  # charmm TF2 f c3 sy ne
3 0.499666059072  3 180 0.0  # charmm TF2 sy ne sy o
4 6.79544648813  1 180 0.0  # charmm TF2 sy ne sy o
5 0.499666059072  3 180 0.0  # charmm TF2 sy ne sy c3
6 6.79544648813  1 180 0.0  # charmm TF2 sy ne sy c3

Atoms

     1     1     1        0.8000000000        0.0000000000        0.0000000000        0.0000000000
     2     2     1        0.8000000000        7.1511700000        5.7439600000       -3.1115800000
     3     3     1        0.8000000000       -2.6375600000       -3.6285900000        3.9746000000
     4     4     1        0.8000000000        4.1275000000        4.2920900000       -2.6233500000
     5     5     1        0.8000000000        3.9168000000       -4.7827900000       -3.4995300000
     6     6     1        0.8000000000        1.1037000000        0.4202100000        8.3747000000
     7     7     1        0.8000000000        5.8228000000        7.3774300000        5.2206000000
     8     8     1        0.8000000000       -2.2189400000       -8.3082200000       -5.1172000000
     9     9     1        0.8000000000       -5.6873900000        4.4433400000        3.7691000000
    10    10     1        0.8000000000       -5.8771100000        2.9614500000       -1.9513800000
    11    11     1        0.8000000000        3.3947000000        1.4030900000        3.4100000000
    12    12     1        0.8000000000       -3.2235400000       -6.8633900000        8.1304000000
    13    13     1        0.8000000000        6.9557900000       -4.1854900000        6.1938000000
    14    14     1        0.8000000000        2.9158000000       -4.7288900000       -0.8086400000
    15    15     2       -0.4610000000        0.7966000000       -0.3001600000       -6.6232100000
    16    15     3       -0.1380000000        1.5778000000       -0.4603700000       -3.6863200000
    17    15     4        0.3190000000        2.5222000000       -0.0224300000       -4.5233200000
    18    15     5        0.9110000000        2.1299000000       -0.6227600000       -6.1326800000
    19    15     2       -0.4610000000        2.6749000000       -1.9643900000       -6.3458400000
    20    15     3       -0.1380000000        2.4698000000        1.3473300000       -4.3599100000
    21    15     6       -0.5880000000        2.9390000000        0.2433900000       -7.3815300000
    22    15     2       -0.4610000000        4.9627000000        1.0396600000       -8.5244000000
    23    15     3       -0.1380000000        3.7460000000       -0.4841000000       -4.1727100000
    24    15     5        0.9110000000        4.6843000000        0.4228100000       -7.2199700000
    25    15     2       -0.4610000000        4.8904000000        1.3351600000       -6.0337100000
    26    15     3       -0.1380000000        4.8475000000       -2.0762900000       -8.1419000000
    27    15     3       -0.1380000000        5.6056000000       -1.8529900000       -6.0496600000
    28    15     4        0.3190000000        5.4666000000       -1.2260900000       -7.2671800000
    29    15     3       -0.1380000000        6.7216100000       -1.1110900000       -7.6735800000
    30    16     2       -0.4610000000        4.4161000000       -6.3361900000        2.8852000000
    31    16     3       -0.1380000000        1.4390000000       -6.9818900000        2.3416000000
    32    16     4        0.3190000000        2.4399000000       -7.7205900000        1.7616300000
    33    16     5        0.9110000000        3.9435000000       -6.7649900000        1.5870500000
    34    16     2       -0.4610000000        3.7001000000       -5.7750900000        0.5604900000
    35    16     3       -0.1380000000        2.6565000000       -8.7776400000        2.6000000000
    36    16     6       -0.5880000000        5.1269000000       -7.8230900000        0.8735500000
    37    16     2       -0.4610000000        6.0270600000       -8.5296100000        3.3929000000
    38    16     3       -0.1380000000        2.0137000000       -8.2255500000        0.5903200000
    39    16     5        0.9110000000        6.3146600000       -8.5171800000        1.9500400000
    40    16     2       -0.4610000000        6.6083200000       -9.7207900000        1.1510500000
    41    16     3       -0.1380000000        7.2457700000       -6.1505900000        2.3044000000
    42    16     3       -0.1380000000        8.3187700000       -7.0788900000        0.7072600000
    43    16     4        0.3190000000        7.6972000000       -7.3805900000        1.8830000000
    44    16     3       -0.1380000000        8.5622800000       -7.7245900000        2.7787000000
    45    17     2       -0.4610000000       -4.0833000000       -0.5251700000        0.4877900000
    46    17     3       -0.1380000000       -5.7476900000       -2.6660900000       -1.1025600000
    47    17     4        0.3190000000       -4.5799800000       -2.2079900000       -1.5548400000
    48    17     5        0.9110000000       -4.3480900000       -0.5425200000       -0.9058800000
    49    17     2       -0.4610000000       -5.2775600000        0.3716500000       -1.4572800000
    50    17     3       -0.1380000000       -3.6457600000       -3.0392900000       -1.0463500000
    51    17     6       -0.5880000000       -2.7289600000       -0.2405800000       -1.3391700000
    52    17     2       -0.4610000000       -3.6359300000        2.2983100000       -1.6798500000
    53    17     3       -0.1380000000       -4.5464100000       -2.2581900000       -2.8907400000
    54    17     5        0.9110000000       -2.5288700000        1.4402700000       -1.9700800000
    55    17     2       -0.4610000000       -1.3150300000        1.7858000000       -1.2711100000
    56    17     3       -0.1380000000       -3.2975400000        0.6805400000       -4.4303500000
    57    17     3       -0.1380000000       -1.3052300000        0.7877700000       -4.1867100000
    58    17     4        0.3190000000       -2.4001700000        1.3979100000       -3.7729500000
    59    17     3       -0.1380000000       -2.3554500000        2.5947500000       -4.3322700000
    60    18     2       -0.4610000000        7.4420500000        3.3425100000       -3.1607900000
    61    18     3       -0.1380000000        7.8246900000        0.0209500000       -3.9509500000
    62    18     4        0.3190000000        7.4909100000        0.6274400000       -2.7873200000
    63    18     5        0.9110000000        8.2512300000        2.2337100000       -2.7179100000
    64    18     2       -0.4610000000        9.6113900000        2.0934700000       -3.1852600000
    65    18     3       -0.1380000000        6.1353100000        0.6043000000       -2.7999700000
    66    18     6       -0.5880000000        8.8882600000        2.6794200000       -1.1979200000
    67    18     2       -0.4610000000        7.8142700000        4.2708500000        0.4290000000
    68    18     3       -0.1380000000        7.9532100000       -0.1104000000       -1.7965700000
    69    18     5        0.9110000000        7.6070000000        2.8242500000        0.0322800000
    70    18     2       -0.4610000000        6.3965600000        2.0714200000       -0.3597600000
    71    18     3       -0.1380000000        7.3552000000        1.4628800000        2.1758000000
    72    18     3       -0.1380000000        9.3791200000        2.4176900000        1.7457100000
    73    18     4        0.3190000000        8.3114100000        1.7006400000        1.2696300000
    74    18     3       -0.1380000000        8.8006800000        0.5678100000        0.7109400000
    75    19     2       -0.4610000000        0.0290000000       -6.0289900000       -1.7510700000
    76    19     3       -0.1380000000       -1.5524400000       -7.2376900000        0.5487300000
    77    19     4        0.3190000000       -1.7821600000       -6.0332900000        0.2839100000
    78    19     5        0.9110000000       -0.2557000000       -5.2933900000       -0.4781700000
    79    19     2       -0.4610000000        0.9622000000       -5.2338900000        0.3851500000
    80    19     3       -0.1380000000       -2.6674400000       -6.0542900000       -0.5989700000
    81    19     6       -0.5880000000       -0.6953000000       -3.6494900000       -0.8176600000
    82    19     2       -0.4610000000       -0.0067000000       -1.4951900000       -1.7076700000
    83    19     3       -0.1380000000       -2.1988900000       -5.4730900000        1.3475900000
    84    19     5        0.9110000000        0.0385000000       -2.9141900000       -2.1682900000
    85    19     2       -0.4610000000        1.3107000000       -3.5825900000       -2.3477500000
    86    19     3       -0.1380000000       -0.4087000000       -4.5190900000       -4.1361000000
    87    19     3       -0.1380000000       -0.3109000000       -2.3381900000       -4.7520300000
    88    19     4        0.3190000000       -0.7540000000       -3.2724900000       -3.7393700000
    89    19     3       -0.1380000000       -2.0518800000       -3.2375900000       -3.6242200000
    90    20     2       -0.4610000000        1.3708000000        7.8446300000       -2.1848100000
    91    20     3       -0.1380000000        0.0944000000        5.8345600000       -4.2679100000
    92    20     4        0.3190000000        0.3042000000        5.6380300000       -2.9498300000
    93    20     5        0.9110000000        1.8006000000        6.4889600000       -2.3934000000
    94    20     2       -0.4610000000        2.9818000000        6.0521800000       -3.1999800000
    95    20     3       -0.1380000000       -0.8218000000        5.9073100000       -2.3246400000
    96    20     6       -0.5880000000        2.3124000000        5.9513500000       -0.8626800000
    97    20     2       -0.4610000000        0.8196000000        4.2359100000       -0.3596000000
    98    20     3       -0.1380000000        0.5234000000        4.2949600000       -2.9384300000
    99    20     5        0.9110000000        1.3200000000        5.3914400000        0.3862800000
   100    20     2       -0.4610000000        2.2185000000        5.0474300000        1.4810000000
   101    20     3       -0.1380000000       -1.2215600000        5.5588700000        1.0444900000
   102    20     3       -0.1380000000       -0.4988000000        7.1560300000       -0.0050200000
   103    20     4        0.3190000000       -0.1397000000        6.3258300000        0.9101500000
   104    20     3       -0.1380000000        0.0884000000        7.0849800000        2.0435900000
   105    21     2       -0.4610000000        1.8297000000        5.8610500000        5.2432000000
   106    21     3       -0.1380000000       -0.3716000000        7.8320500000        4.8080000000
   107    21     4        0.3190000000       -0.6172000000        6.8157500000        5.5268000000
   108    21     5        0.9110000000        0.3960000000        5.4383300000        5.1174000000
   109    21     2       -0.4610000000       -0.1725000000        4.7495600000        3.8904000000
   110    21     3       -0.1380000000       -0.4492000000        7.1603700000        6.8668000000
   111    21     6       -0.5880000000        0.1013000000        4.3028500000        6.4537000000
   112    21     2       -0.4610000000        0.9241000000        2.1851600000        7.7486000000
   113    21     3       -0.1380000000       -1.9378200000        6.4704000000        5.3963000000
   114    21     5        0.9110000000        1.2059000000        3.6790300000        7.5840000000
   115    21     2       -0.4610000000        2.6225000000        3.6936200000        7.0811000000
   116    21     3       -0.1380000000        2.1206000000        4.4487400000        9.8940900000
   117    21     3       -0.1380000000        0.0255000000        4.9174400000        9.4374900000
   118    21     4        0.3190000000        1.2568000000        4.8373100000        8.9383000000
   119    21     3       -0.1380000000        1.5713000000        6.0881200000        8.5945000000
   120    22     2       -0.4610000000       -1.4228200000       -4.1471900000        5.8923000000
   121    22     3       -0.1380000000       -1.7215700000       -3.7853900000        9.7840300000
   122    22     4        0.3190000000       -1.5556900000       -3.2298900000        8.5527000000
   123    22     5        0.9110000000       -1.1576200000       -4.4938900000        7.3217000000
   124    22     2       -0.4610000000       -1.6717000000       -5.8102900000        7.7125000000
   125    22     3       -0.1380000000       -2.6760000000       -2.7038900000        8.2353000000
   126    22     6       -0.5880000000        0.5832000000       -4.5550900000        7.0418000000
   127    22     2       -0.4610000000        2.5361000000       -5.4666900000        8.6814000000
   128    22     3       -0.1380000000       -0.6925000000       -2.2155900000        8.6725000000
   129    22     5        0.9110000000        1.6387000000       -5.8716900000        7.5792000000
   130    22     2       -0.4610000000        0.7450000000       -6.9343900000        8.0354000000
   131    22     3       -0.1380000000        1.5785000000       -7.0987900000        5.2444000000
   132    22     3       -0.1380000000        3.2767000000       -7.7808900000        6.5094000000
   133    22     4        0.3190000000        2.4823000000       -6.6885900000        6.2690000000
   134    22     3       -0.1380000000        3.3065000000       -5.8054900000        5.6694000000
   135    23     2       -0.4610000000       -7.9752800000       -4.8848900000        5.8458000000
   136    23     3       -0.1380000000       -5.7819500000       -3.6083900000        2.7572000000
   137    23     4        0.3190000000       -6.9262400000       -3.6831900000        3.5539000000
   138    23     5        0.9110000000       -6.7280000000       -4.5036900000        5.1956000000
   139    23     2       -0.4610000000       -5.7210500000       -3.9186900000        6.0651000000
   140    23     3       -0.1380000000       -7.3695000000       -2.4316900000        3.6299000000
   141    23     6       -0.5880000000       -6.2263100000       -6.1363900000        4.8427000000
   142    23     2       -0.4610000000       -3.9777300000       -5.3716900000        4.0572000000
   143    23     3       -0.1380000000       -7.8231900000       -4.3010900000        2.7949000000
   144    23     5        0.9110000000       -4.5723200000       -6.5716900000        4.7546000000
   145    23     2       -0.4610000000       -4.2398500000       -6.7472900000        6.1700000000
   146    23     3       -0.1380000000       -5.3507800000       -7.7836900000        2.6211000000
   147    23     3       -0.1380000000       -4.8474200000       -9.2006800000        4.1208000000
   148    23     4        0.3190000000       -4.4739000000       -8.0358200000        3.5755000000
   149    23     3       -0.1380000000       -3.2410100000       -8.2876400000        2.9996000000
   150    24     2       -0.4610000000        8.2195600000        6.9884100000       -7.2778800000
   151    24     3       -0.1380000000        6.8869300000        4.8463000000       -8.9420000000
   152    24     4        0.3190000000        6.6620100000        4.7953300000       -7.6384000000
   153    24     5        0.9110000000        6.9648000000        6.3443700000       -6.8022700000
   154    24     2       -0.4610000000        6.6519800000        6.2086300000       -5.3651100000
   155    24     3       -0.1380000000        5.3561000000        4.4760000000       -7.4572500000
   156    24     6       -0.5880000000        5.8467000000        7.4847300000       -7.5567300000
   157    24     2       -0.4610000000        5.9794700000        8.8046300000       -5.3702400000
   158    24     3       -0.1380000000        7.2776900000        3.7999700000       -7.0798800000
   159    24     5        0.9110000000        5.1108000000        8.6072000000       -6.5316000000
   160    24     2       -0.4610000000        4.8520000000        9.7493100000       -7.4952100000
   161    24     3       -0.1380000000        3.1692000000        8.4101800000       -4.7997400000
   162    24     3       -0.1380000000        3.6211000000        6.6978900000       -5.8083400000
   163    24     4        0.3190000000        3.5951000000        7.9316100000       -5.9467600000
   164    24     3       -0.1380000000        2.7037000000        8.2428300000       -6.9254200000
   165    25     2       -0.4610000000        4.0662000000       -0.8818400000        0.0839000000
   166    25     3       -0.1380000000        5.9499500000       -2.2110900000        2.9808000000
   167    25     4        0.3190000000        5.8226000000       -1.9100900000        1.6619700000
   168    25     5        0.9110000000        4.4516000000       -0.7315700000        1.4116800000
   169    25     2       -0.4610000000        4.5847000000        0.6195900000        2.0552000000
   170    25     3       -0.1380000000        7.0147800000       -1.4370900000        1.3366400000
   171    25     6       -0.5880000000        3.1548000000       -1.2629900000        2.5337000000
   172    25     2       -0.4610000000        0.9050000000       -1.3812900000        1.6366400000
   173    25     3       -0.1380000000        5.5973000000       -3.1529900000        1.1021100000
   174    25     5        0.9110000000        1.9979000000       -2.3525900000        1.8585300000
   175    25     2       -0.4610000000        2.4942000000       -3.0930900000        0.6924300000
   176    25     3       -0.1380000000        1.2300000000       -2.7199900000        4.3203000000
   177    25     3       -0.1380000000        2.8281000000       -4.1049900000        3.6000000000
   178    25     4        0.3190000000        1.6919000000       -3.4149900000        3.2862000000
   179    25     3       -0.1380000000        0.7392000000       -4.3410900000        3.0513000000
   180    26     2       -0.4610000000       -8.3853700000       -3.4090900000       -7.7673100000
   181    26     3       -0.1380000000       -6.0650100000       -1.7421900000       -6.7013100000
   182    26     4        0.3190000000       -7.2232100000       -1.9137900000       -5.9363800000
   183    26     5        0.9110000000       -7.9938400000       -3.4584900000       -6.3575700000
   184    26     2       -0.4610000000       -9.0208400000       -3.9315900000       -5.4168200000
   185    26     3       -0.1380000000       -6.9164100000       -1.9685900000       -4.6920100000
   186    26     6       -0.5880000000       -6.8126700000       -4.7434900000       -6.2716600000
   187    26     2       -0.4610000000       -8.6495100000       -6.3626900000       -6.5682800000
   188    26     3       -0.1380000000       -8.0543000000       -0.9593200000       -6.1623600000
   189    26     5        0.9110000000       -7.2951000000       -6.3662900000       -6.0191000000
   190    26     2       -0.4610000000       -6.3636800000       -7.2726900000       -6.7666600000
   191    26     3       -0.1380000000       -7.2336900000       -8.0163600000       -4.2864200000
   192    26     3       -0.1380000000       -8.5863400000       -6.4026900000       -3.8022800000
   193    26     4        0.3190000000       -7.3803900000       -6.6966900000       -4.3082700000
   194    26     3       -0.1380000000       -6.3838600000       -6.2849900000       -3.5307600000
   195    27     2       -0.4610000000       -6.4270700000        2.6317800000        4.6012000000
   196    27     3       -0.1380000000       -8.4518200000        0.1956000000        5.0529000000
   197    27     4        0.3190000000       -7.6077200000        0.5884400000        6.0588000000
   198    27     5        0.9110000000       -6.1631400000        1.3628700000        5.2700000000
   199    27     2       -0.4610000000       -5.4045200000        0.3696400000        4.4651000000
   200    27     3       -0.1380000000       -8.1489200000        1.5016300000        6.9280000000
   201    27     6       -0.5880000000       -5.2364700000        1.9671900000        6.5800000000
   202    27     2       -0.4610000000       -4.0091300000       -0.2948000000        6.8015000000
   203    27     3       -0.1380000000       -7.1363500000       -0.4625400000        6.7980000000
   204    27     5        0.9110000000       -3.7505000000        1.1035900000        7.0850000000
   205    27     2       -0.4610000000       -2.6345000000        1.6107600000        6.3807000000
   206    27     3       -0.1380000000       -2.6763000000        0.4594700000        9.3540000000
   207    27     3       -0.1380000000       -4.7827500000        1.1674600000        9.5677700000
   208    27     4        0.3190000000       -3.5836500000        1.3030100000        8.9277000000
   209    27     3       -0.1380000000       -3.2604600000        2.6060600000        9.1749000000
   210    28     2       -0.4610000000       -3.3853200000        5.9117100000       -3.7309700000
   211    28     3       -0.1380000000       -6.7188200000        5.6688800000       -5.4372100000
   212    28     4        0.3190000000       -5.3659800000        5.7339500000       -5.5316800000
   213    28     5        0.9110000000       -4.7840700000        5.5285700000       -3.8526500000
   214    28     2       -0.4610000000       -5.1213300000        4.1242000000       -3.4472600000
   215    28     3       -0.1380000000       -4.9123600000        4.8507100000       -6.4425800000
   216    28     6       -0.5880000000       -5.7149800000        6.7258300000       -2.9685700000
   217    28     2       -0.4610000000       -7.9175600000        6.0302200000       -1.8401200000
   218    28     3       -0.1380000000       -5.1429800000        7.0123500000       -5.9559900000
   219    28     5        0.9110000000       -6.4845300000        6.1244900000       -1.4466100000
   220    28     2       -0.4610000000       -5.8936900000        4.8485700000       -0.9393200000
   221    28     3       -0.1380000000       -4.6946700000        7.6577600000       -0.3516500000
   222    28     3       -0.1380000000       -6.5318700000        7.3827400000        0.8032500000
   223    28     4        0.3190000000       -6.0192500000        7.4733100000       -0.4489200000
   224    28     3       -0.1380000000       -6.5393400000        8.5959000000       -0.9491600000
   225    29     7       -0.8200000000        0.9703000000        1.6817200000        0.4294900000
   226    29     8        0.4100000000        0.4821000000        2.5413600000        0.1113700000
   227    29     8        0.4100000000        1.1616000000        1.6539300000        1.3568200000
   228    30     7       -0.8200000000        4.4557000000       -3.5844900000       -1.7825100000
   229    30     8        0.4100000000        5.4007000000       -3.7645900000       -1.5414100000
   230    30     8        0.4100000000        4.2690000000       -2.5775900000       -1.6009500000
   231    31     7       -0.8200000000        3.8773000000        1.3399100000        5.4144000000
   232    31     8        0.4100000000        4.2785000000        1.1427200000        6.3200000000
   233    31     8        0.4100000000        3.1310000000        2.0065900000        5.5624000000
   234    32     7       -0.8200000000        6.5412000000       -5.4156900000        7.8026000000
   235    32     8        0.4100000000        5.7521000000       -5.9589900000        8.2608000000
   236    32     8        0.4100000000        7.2363200000       -5.4626900000        8.5041000000
   237    33     7       -0.8200000000       -4.3747500000       -5.2220900000        8.3762000000
   238    33     8        0.4100000000       -4.6781100000       -5.3654900000        7.4031000000
   239    33     8        0.4100000000       -4.9109300000       -4.4298900000        8.6451000000
   240    34     7       -0.8200000000        4.4026000000        5.9634900000        5.7486000000
   241    34     8        0.4100000000        3.4486000000        6.1370300000        5.4764000000
   242    34     8        0.4100000000        4.2944000000        5.0906200000        6.2480000000
   243    35     7       -0.8200000000       -7.2330200000        5.4414000000        2.8432000000
   244    35     8        0.4100000000       -7.9645700000        4.9189100000        2.2244000000
   245    35     8        0.4100000000       -7.2233100000        6.4371200000        2.5752000000
   246    36     7       -0.8200000000        1.2063000000        1.2416800000        3.0772000000
   247    36     8        0.4100000000        0.2811000000        1.5183000000        3.3611000000
   248    36     8        0.4100000000        1.1004000000        0.2614500000        2.6874000000
   249    37     7       -0.8200000000        4.7387000000        4.2129000000       -4.6069000000
   250    37     8        0.4100000000        4.6498000000        5.1231800000       -5.1534400000
   251    37     8        0.4100000000        4.3677000000        3.4585500000       -5.0591200000
   252    38     7       -0.8200000000        4.3841000000       -1.5072900000        6.0664000000
   253    38     8        0.4100000000        5.3597000000       -1.6401900000        6.3579000000
   254    38     8        0.4100000000        4.2737000000       -0.8995000000        5.2080000000
   255    39     7       -0.8200000000        5.9204100000       -4.4612900000        4.4663000000
   256    39     8        0.4100000000        5.2644000000       -3.6782900000        4.2509000000
   257    39     8        0.4100000000        5.7622000000       -5.0785900000        3.5959000000
   258    40     7       -0.8200000000       -7.4963600000       -7.7709900000        7.3811000000
   259    40     8        0.4100000000       -7.3382400000       -7.7831900000        8.4039000000
   260    40     8        0.4100000000       -7.1944100000       -6.9385900000        6.9302000000
   261    41     7       -0.8200000000        7.4809800000       -2.0488900000        6.3122000000
   262    41     8        0.4100000000        8.1612900000       -1.4209900000        5.8427000000
   263    41     8        0.4100000000        7.7313900000       -2.0612900000        7.3126000000
   264    42     7       -0.8200000000        6.7602000000        8.2319100000        6.8017000000
   265    42     8        0.4100000000        7.6114200000        8.7581200000        6.7201000000
   266    42     8        0.4100000000        6.5566400000        8.0223900000        7.7908000000
   267    43     7       -0.8200000000       -5.5629700000        5.4115800000        5.6026000000
   268    43     8        0.4100000000       -5.9616000000        6.0984200000        6.2760000000
   269    43     8        0.4100000000       -5.0737700000        4.5830000000        6.0055000000
   270    44     7       -0.8200000000        5.6820000000        5.1783500000       -1.4411100000
   271    44     8        0.4100000000        5.2851000000        5.9201200000       -0.9325700000
   272    44     8        0.4100000000        6.0207200000        4.5819900000       -0.7015900000
   273    45     7       -0.8200000000       -1.8743100000       -8.2192400000       -3.0319000000
   274    45     8        0.4100000000       -1.3690500000       -7.4073900000       -2.6882500000
   275    45     8        0.4100000000       -1.8394700000       -8.9695900000       -2.3404100000
   276    46     7       -0.8200000000       -0.8623000000       -7.2032900000       -6.4299000000
   277    46     8        0.4100000000       -0.5264000000       -7.4135900000       -7.3913000000
   278    46     8        0.4100000000       -0.4037000000       -6.3490900000       -6.1177500000
   279    47     7       -0.8200000000        7.8004700000        6.2255600000        4.9603000000
   280    47     8        0.4100000000        8.5532700000        5.8844400000        4.3362000000
   281    47     8        0.4100000000        8.2684400000        6.4492700000        5.8206000000
   282    48     7       -0.8200000000       -1.6221300000        0.1833400000        1.5896300000
   283    48     8        0.4100000000       -1.7980100000        0.9243800000        2.2764000000
   284    48     8        0.4100000000       -2.5098300000        0.0368300000        1.0735100000
   285    49     7       -0.8200000000        2.6518000000       -6.2231900000       -2.3485200000
   286    49     8        0.4100000000        2.7499000000       -7.0229900000       -1.7296300000