LAMMPS data file
# 14 LI molecules
# 14 TF2 molecules
# 39 wat molecules

8 atom types
5 bond types
8 angle types
6 dihedral types

341 atoms
274 bonds
389 angles
420 dihedrals

    0.0000   16.9073 xlo xhi
    0.0000   16.9207 ylo yhi
    0.0000   16.9298 zlo zhi

Masses

1    6.941  # li LI
2   16.000  # o TF2
3   19.000  # f TF2
4   12.010  # c3 TF2
5   32.060  # sy TF2
6   14.010  # ne TF2
7   16.000  # oh wat
8    1.008  # ho wat

Pair Coeffs

1 0.0182660800896 2.126  # li LI
2 0.209859347635 2.960  # o TF2
3 0.0609584251392 3.118  # f TF2
4 0.10932640151 3.400  # c3 TF2
5 0.249833029536 3.564  # sy TF2
6 0.169885665734 3.250  # ne TF2
7 0.155323242893 3.165  # oh wat
8 0.0 0.000  # ho wat

Bond Coeffs

1 492.669820742  1.466  # harmonic TF2 o sy
2 363.556158739  1.344  # harmonic TF2 c3 f
3 248.732854675  1.782  # harmonic TF2 c3 sy
4 256.928561626  1.752  # harmonic TF2 ne sy
5 529.230180349  1.012  # harmonic wat ho oh

Angle Coeffs

1 41.2525855296  108.48  # harmonic TF2 c3 sy o
2 45.2700110592  121.88  # harmonic TF2 o sy o
3 43.0716472128  107.06  # harmonic TF2 ne sy o
4 81.1647052992  109.67  # harmonic TF2 f c3 sy
5 71.2114987968  107.16  # harmonic TF2 f c3 f
6 39.3938063424  103.12  # harmonic TF2 c3 sy ne
7 109.646127418  119.18  # harmonic TF2 sy ne sy
8 37.924854457  113.24  # harmonic wat ho oh ho

Dihedral Coeffs

1 0.143896516992  3 0 0.0  # charmm TF2 f c3 sy o
2 0.143896516992  3 0 0.0  # charmm TF2 f c3 sy ne
3 0.499666059072  3 180 0.0  # charmm TF2 sy ne sy o
4 6.79544648813  1 180 0.0  # charmm TF2 sy ne sy o
5 0.499666059072  3 180 0.0  # charmm TF2 sy ne sy c3
6 6.79544648813  1 180 0.0  # charmm TF2 sy ne sy c3

Atoms

     1     1     1        0.8000000000        0.0000000000        0.0000000000        0.0000000000
     2     2     1        0.8000000000       -3.0600000000       -5.0836000000        4.4382400000
     3     3     1        0.8000000000       -2.0167000000       -3.6792000000       -5.6171900000
     4     4     1        0.8000000000        2.6603600000       -3.1713000000        1.2369400000
     5     5     1        0.8000000000       -7.9300800000       -1.0057000000        4.8496400000
     6     6     1        0.8000000000       -6.1006300000       -6.2546000000        8.1115400000
     7     7     1        0.8000000000       -7.7928200000        7.9709500000       -3.1635900000
     8     8     1        0.8000000000       -1.2577000000        3.7699000000        4.7636400000
     9     9     1        0.8000000000        1.5095800000       -3.6519000000        6.4594400000
    10    10     1        0.8000000000        3.6116000000        7.0776400000       -2.5171600000
    11    11     1        0.8000000000       -4.8116000000       -2.2432000000       -4.2733100000
    12    12     1        0.8000000000       -7.4558100000        6.0559200000       -0.4049800000
    13    13     1        0.8000000000       -5.1504000000        3.5418500000       -4.5987000000
    14    14     1        0.8000000000        7.3798100000        4.4114300000        6.3119400000
    15    15     2       -0.4610000000        7.8495100000        7.5874500000       -0.8817100000
    16    15     3       -0.1380000000        5.6929300000        6.6089200000        1.4504400000
    17    15     4        0.3190000000        5.3971900000        7.5365300000        0.4804600000
    18    15     5        0.9110000000        6.3943100000        7.3912600000       -1.0724000000
    19    15     2       -0.4610000000        5.8065400000        8.3651400000       -1.9694400000
    20    15     3       -0.1380000000        4.0622600000        7.3548000000        0.2944900000
    21    15     6       -0.5880000000        6.2500700000        5.8509400000       -1.7055200000
    22    15     2       -0.4610000000        7.5277800000        4.8323200000        0.1593000000
    23    15     3       -0.1380000000        5.5523400000        8.7545600000        0.9064400000
    24    15     5        0.9110000000        6.3824000000        4.4582500000       -0.7306900000
    25    15     2       -0.4610000000        5.0685700000        4.1031700000       -0.1555200000
    26    15     3       -0.1380000000        7.3110600000        2.0269500000       -1.0084100000
    27    15     3       -0.1380000000        8.0922600000        3.3936100000       -2.4727100000
    28    15     4        0.3190000000        6.9911400000        3.1121000000       -1.7619300000
    29    15     3       -0.1380000000        6.0690400000        2.7058600000       -2.7179600000
    30    16     2       -0.4610000000       -6.5576500000       -2.0833000000       -3.1191800000
    31    16     3       -0.1380000000       -9.4660500000       -1.6591000000       -2.2509500000
    32    16     4        0.3190000000       -8.7130900000       -2.5402000000       -1.5701000000
    33    16     5        0.9110000000       -7.2833500000       -3.1501000000       -2.3880700000
    34    16     2       -0.4610000000       -7.4576200000       -4.3784000000       -3.1844700000
    35    16     3       -0.1380000000       -8.3141200000       -2.0176000000       -0.3434600000
    36    16     6       -0.5880000000       -6.1734600000       -3.8991000000       -1.1933500000
    37    16     2       -0.4610000000       -3.7597000000       -4.2911000000       -0.3387400000
    38    16     3       -0.1380000000       -9.5221200000       -3.4697000000       -1.1434500000
    39    16     5        0.9110000000       -4.4976000000       -3.2709000000       -1.1410200000
    40    16     2       -0.4610000000       -4.0553000000       -3.2132000000       -2.5415100000
    41    16     3       -0.1380000000       -5.0934000000       -0.6691000000       -1.0268000000
    42    16     3       -0.1380000000       -3.2890000000       -1.3241000000        0.0456400000
    43    16     4        0.3190000000       -4.5407000000       -1.6578000000       -0.3031300000
    44    16     3       -0.1380000000       -5.1818000000       -1.7815000000        0.9003400000
    45    17     2       -0.4610000000       -6.3123100000       -1.6265000000       -6.3716100000
    46    17     3       -0.1380000000       -8.8468300000       -3.2100000000       -5.7030300000
    47    17     4        0.3190000000       -8.9996300000       -2.1202000000       -6.4657900000
    48    17     5        0.9110000000       -7.6122700000       -0.9723000000       -6.3064400000
    49    17     2       -0.4610000000       -7.8230900000        0.0440000000       -5.2411300000
    50    17     3       -0.1380000000       -9.0505400000       -2.5851000000       -7.7087000000
    51    17     6       -0.5880000000       -7.8078800000       -0.0331000000       -7.6728400000
    52    17     2       -0.4610000000       -6.0880500000       -1.5397000000       -8.9586300000
    53    17     3       -0.1380000000      -10.1986400000       -1.5862000000       -6.2102000000
    54    17     5        0.9110000000       -6.6724900000       -0.1583000000       -9.0176400000
    55    17     2       -0.4610000000       -7.5644600000        0.1792000000      -10.1399600000
    56    17     3       -0.1380000000       -5.8642400000        2.2220200000       -8.8043200000
    57    17     3       -0.1380000000       -4.5222000000        0.7920100000       -9.8965600000
    58    17     4        0.3190000000       -5.3110000000        1.0035200000       -8.7811100000
    59    17     3       -0.1380000000       -4.8585000000        0.7605800000       -7.5769900000
    60    18     2       -0.4610000000       -6.6040700000       -8.1092700000       -8.0115200000
    61    18     3       -0.1380000000       -6.4415400000      -10.9826300000       -9.2598600000
    62    18     4        0.3190000000       -5.5182000000      -10.3871000000       -8.5284800000
    63    18     5        0.9110000000       -6.2444100000       -9.2853900000       -7.2993400000
    64    18     2       -0.4610000000       -5.2646000000       -9.2001900000       -6.1730100000
    65    18     3       -0.1380000000       -4.6670000000      -11.2527900000       -8.0243000000
    66    18     6       -0.5880000000       -7.7134100000       -9.9348000000       -6.5341900000
    67    18     2       -0.4610000000       -6.3147200000      -12.1438400000       -5.9281700000
    68    18     3       -0.1380000000       -4.6859000000       -9.7590100000       -9.3437600000
    69    18     5        0.9110000000       -7.6166400000      -11.4784000000       -5.7310700000
    70    18     2       -0.4610000000       -7.6475000000      -10.9796100000       -4.3416300000
    71    18     3       -0.1380000000      -10.0765000000      -12.4875200000       -5.7391500000
    72    18     3       -0.1380000000       -8.5324100000      -13.9494300000       -6.2214600000
    73    18     4        0.3190000000       -8.9001500000      -12.6478300000       -6.3339700000
    74    18     3       -0.1380000000       -9.1508700000      -12.3453800000       -7.6416200000
    75    19     2       -0.4610000000       -1.5102000000        0.0460000000       -3.3659600000
    76    19     3       -0.1380000000        0.5640000000        3.1393200000       -3.0872000000
    77    19     4        0.3190000000        0.1616000000        2.0815700000       -3.8539200000
    78    19     5        0.9110000000       -1.2674000000        1.4738700000       -3.0842100000
    79    19     2       -0.4610000000       -2.3530000000        2.4653700000       -3.2040800000
    80    19     3       -0.1380000000       -0.1359000000        2.6125700000       -5.0375200000
    81    19     6       -0.5880000000       -0.9934000000        1.5030000000       -1.3910000000
    82    19     2       -0.4610000000       -3.5000000000        1.5393900000       -0.6228200000
    83    19     3       -0.1380000000        1.0911000000        1.1552300000       -3.9841100000
    84    19     5        0.9110000000       -2.1508000000        1.9264200000       -0.2012200000
    85    19     2       -0.4610000000       -1.6431000000        1.1299700000        0.9166400000
    86    19     3       -0.1380000000       -2.4932000000        4.3193100000       -1.0931000000
    87    19     3       -0.1380000000       -0.5912000000        3.9036000000       -0.1687400000
    88    19     4        0.3190000000       -1.9069000000        3.6928000000       -0.1810700000
    89    19     3       -0.1380000000       -2.3206000000        4.2002200000        1.0187400000
    90    20     2       -0.4610000000       -1.8854000000        5.3062300000       -4.1086800000
    91    20     3       -0.1380000000        0.3297000000        7.9755600000       -5.8710500000
    92    20     4        0.3190000000       -0.0985000000        6.8040000000       -5.5773200000
    93    20     5        0.9110000000       -1.5501000000        6.7140800000       -4.5226800000
    94    20     2       -0.4610000000       -2.5621000000        7.4260400000       -5.2516900000
    95    20     3       -0.1380000000       -0.1163000000        6.1127800000       -6.7338900000
    96    20     6       -0.5880000000       -1.1553000000        7.5026200000       -3.0524500000
    97    20     2       -0.4610000000       -2.0401000000        9.7828000000       -2.7322200000
    98    20     3       -0.1380000000        0.9583000000        6.4002800000       -4.8479900000
    99    20     5        0.9110000000       -2.4201000000        8.4201900000       -2.3396700000
   100    20     2       -0.4610000000       -3.7866000000        7.9693200000       -2.6515400000
   101    20     3       -0.1380000000       -2.1568000000        9.6104800000        0.0199700000
   102    20     3       -0.1380000000       -1.1942000000        7.7335100000       -0.2089500000
   103    20     4        0.3190000000       -2.2913000000        8.3999800000       -0.5878300000
   104    20     3       -0.1380000000       -3.3977000000        7.7091700000       -0.2325600000
   105    21     2       -0.4610000000        0.6269000000       -1.0807000000       -7.9468300000
   106    21     3       -0.1380000000        2.7097300000        0.8058400000       -6.9162100000
   107    21     4        0.3190000000        3.1137000000       -0.2557000000       -7.7566100000
   108    21     5        0.9110000000        1.7156600000       -0.6630000000       -8.7767700000
   109    21     2       -0.4610000000        1.9916700000       -1.5125000000       -9.9657600000
   110    21     3       -0.1380000000        4.1834500000        0.1644000000       -8.5391400000
   111    21     6       -0.5880000000        1.2946000000        0.7536800000       -9.6396600000
   112    21     2       -0.4610000000       -0.0771000000        2.4832400000      -10.6975600000
   113    21     3       -0.1380000000        3.5587800000       -1.2146000000       -6.9386500000
   114    21     5        0.9110000000       -0.3140000000        1.3777000000       -9.7610600000
   115    21     2       -0.4610000000       -1.2560000000        0.3229000000      -10.1698600000
   116    21     3       -0.1380000000       -1.1788000000        1.1918600000       -7.4164100000
   117    21     3       -0.1380000000       -1.6473000000        2.9701400000       -8.4462100000
   118    21     4        0.3190000000       -0.6250000000        2.0643800000       -8.2033900000
   119    21     3       -0.1380000000        0.4389000000        2.7095600000       -7.7100400000
   120    22     2       -0.4610000000        1.2341400000       -4.4023000000        4.5402400000
   121    22     3       -0.1380000000        2.0768300000       -6.8800600000        2.7177400000
   122    22     4        0.3190000000        0.7463000000       -6.6369300000        2.8190400000
   123    22     5        0.9110000000        0.3426000000       -5.0090000000        3.5452400000
   124    22     2       -0.4610000000       -1.0485000000       -5.0886000000        3.9752400000
   125    22     3       -0.1380000000        0.2172000000       -6.9051500000        1.6162400000
   126    22     6       -0.5880000000        0.7305000000       -3.7992000000        2.3574400000
   127    22     2       -0.4610000000        0.3589000000       -1.6941000000        1.0965400000
   128    22     3       -0.1380000000        0.2655000000       -7.5879300000        3.6759400000
   129    22     5        0.9110000000       -0.3913000000       -2.5189000000        2.0200400000
   130    22     2       -0.4610000000       -1.6877000000       -3.2405000000        1.6194400000
   131    22     3       -0.1380000000       -1.5924000000       -2.3500000000        4.3400400000
   132    22     3       -0.1380000000       -1.1889000000       -0.5732000000        3.4514400000
   133    22     4        0.3190000000       -0.6251000000       -1.7476000000        3.6873400000
   134    22     3       -0.1380000000        0.4852000000       -1.5578000000        4.4551400000
   135    23     2       -0.4610000000       -4.6651000000       -7.7957100000        1.7379400000
   136    23     3       -0.1380000000       -3.2265000000      -10.4271400000        2.5372400000
   137    23     4        0.3190000000       -2.7729000000       -9.3412300000        3.2042400000
   138    23     5        0.9110000000       -4.0035000000       -8.0707000000        2.9553400000
   139    23     2       -0.4610000000       -3.6820000000       -6.8954600000        3.7537400000
   140    23     3       -0.1380000000       -2.4112000000       -9.5639300000        4.4554400000
   141    23     6       -0.5880000000       -5.3014000000       -8.6502300000        3.9792400000
   142    23     2       -0.4610000000       -6.2409300000      -10.0660300000        1.8988400000
   143    23     3       -0.1380000000       -1.5516000000       -9.0240600000        2.6364400000
   144    23     5        0.9110000000       -6.2941400000       -9.9643300000        3.4121400000
   145    23     2       -0.4610000000       -5.6286000000      -11.0799000000        4.1757400000
   146    23     3       -0.1380000000       -8.6398500000      -10.9286200000        4.0376400000
   147    23     3       -0.1380000000       -8.6424500000       -9.0599100000        2.9796400000
   148    23     4        0.3190000000       -7.9868900000       -9.7492300000        3.8828400000
   149    23     3       -0.1380000000       -8.1073100000       -9.0677100000        5.0838400000
   150    24     2       -0.4610000000        2.1402100000       -4.2862000000        8.2712800000
   151    24     3       -0.1380000000        2.5057200000       -6.9395900000       10.9605900000
   152    24     4        0.3190000000        2.9303100000       -6.0025000000       10.1612700000
   153    24     5        0.9110000000        1.5861600000       -5.0706000000        9.3824600000
   154    24     2       -0.4610000000        0.8760000000       -4.2948000000       10.3918500000
   155    24     3       -0.1380000000        3.6823700000       -5.2231000000       10.8957900000
   156    24     6       -0.5880000000        0.4017000000       -6.3012000000        8.8313900000
   157    24     2       -0.4610000000       -0.8758000000       -6.4065900000        6.6127400000
   158    24     3       -0.1380000000        3.6121000000       -6.7235300000        9.3141900000
   159    24     5        0.9110000000        0.3998000000       -6.8880300000        7.1586400000
   160    24     2       -0.4610000000        1.5182800000       -6.3173000000        6.3288400000
   161    24     3       -0.1380000000        0.6543000000       -9.2074700000        6.1194400000
   162    24     3       -0.1380000000       -0.3790000000       -9.2349000000        7.9989700000
   163    24     4        0.3190000000        0.6537000000       -8.7350600000        7.3644400000
   164    24     3       -0.1380000000        1.8061100000       -9.0200300000        7.9507400000
   165    25     2       -0.4610000000       -8.3817700000        0.7332200000        1.2460400000
   166    25     3       -0.1380000000      -11.0492600000        1.7174100000        3.9150400000
   167    25     4        0.3190000000      -10.5351500000        1.5295600000        2.6851400000
   168    25     5        0.9110000000       -8.9598800000        0.6978100000        2.6023400000
   169    25     2       -0.4610000000       -9.0801500000       -0.6656000000        3.1392400000
   170    25     3       -0.1380000000      -11.4471500000        0.8295200000        1.9544400000
   171    25     6       -0.5880000000       -7.7743900000        1.1490400000        3.8267400000
   172    25     2       -0.4610000000       -7.0723500000        3.3274100000        2.6701400000
   173    25     3       -0.1380000000      -10.5101000000        2.7786100000        2.0403400000
   174    25     5        0.9110000000       -6.5355800000        2.2768200000        3.5899400000
   175    25     2       -0.4610000000       -6.2702900000        2.7060800000        4.9592400000
   176    25     3       -0.1380000000       -4.2852000000        2.5356300000        2.2059400000
   177    25     3       -0.1380000000       -5.4597000000        0.8138700000        1.6336400000
   178    25     4        0.3190000000       -5.0827000000        1.5229500000        2.6999400000
   179    25     3       -0.1380000000       -4.3768000000        0.8464100000        3.6241400000
   180    26     2       -0.4610000000        1.7204500000       -4.4713000000       -0.5355700000
   181    26     3       -0.1380000000        4.1607300000       -6.3060000000       -2.7621800000
   182    26     4        0.3190000000        3.9160800000       -5.3730000000       -1.8470000000
   183    26     5        0.9110000000        2.2020900000       -4.7489000000       -1.8776100000
   184    26     2       -0.4610000000        1.3404800000       -5.4798000000       -2.8295400000
   185    26     3       -0.1380000000        4.2167800000       -5.8347000000       -0.5712900000
   186    26     6       -0.5880000000        2.1970600000       -3.2127000000       -2.6427400000
   187    26     2       -0.4610000000        1.4012100000       -0.8802000000       -1.6125700000
   188    26     3       -0.1380000000        4.7938600000       -4.3869000000       -1.9955700000
   189    26     5        0.9110000000        2.6470500000       -1.6777000000       -1.7967000000
   190    26     2       -0.4610000000        3.2597000000       -2.2007000000       -0.5674700000
   191    26     3       -0.1380000000        4.3814100000        0.0473000000       -2.5287700000
   192    26     3       -0.1380000000        2.9980900000       -0.6964000000       -4.0430800000
   193    26     4        0.3190000000        3.7306600000       -1.0590000000       -2.9892900000
   194    26     3       -0.1380000000        4.5493300000       -2.0330000000       -3.4814500000
   195    27     2       -0.4610000000        8.0625600000       -3.9774000000        6.8136400000
   196    27     3       -0.1380000000        4.6416400000       -2.3154000000        5.9012400000
   197    27     4        0.3190000000        5.3458400000       -3.2518000000        6.4641400000
   198    27     5        0.9110000000        7.1107700000       -3.1283000000        6.0734400000
   199    27     2       -0.4610000000        7.4491300000       -1.6965000000        5.9108400000
   200    27     3       -0.1380000000        5.1844900000       -2.9718000000        7.7862400000
   201    27     6       -0.5880000000        6.9929400000       -3.4759000000        4.4116400000
   202    27     2       -0.4610000000        7.7039300000       -5.7762000000        5.0245400000
   203    27     3       -0.1380000000        4.8705200000       -4.3983000000        6.2218400000
   204    27     5        0.9110000000        7.4769400000       -5.0423000000        3.7907400000
   205    27     2       -0.4610000000        6.3286100000       -5.3283000000        2.9618400000
   206    27     3       -0.1380000000        9.9571400000       -4.2572000000        3.6901400000
   207    27     3       -0.1380000000        8.7599900000       -3.9527000000        2.0178400000
   208    27     4        0.3190000000        8.9916400000       -4.8161000000        2.9383400000
   209    27     3       -0.1380000000        9.4712900000       -5.9421000000        2.4314400000
   210    28     2       -0.4610000000        2.8961000000        4.7942100000        4.6976400000
   211    28     3       -0.1380000000        4.9924200000        3.3155300000        7.5174400000
   212    28     4        0.3190000000        3.8946900000        3.3227900000        6.8212400000
   213    28     5        0.9110000000        4.0470900000        4.7104700000        5.6296400000
   214    28     2       -0.4610000000        5.3784200000        4.5226800000        5.0097400000
   215    28     3       -0.1380000000        3.8700900000        2.1170400000        6.2054400000
   216    28     6       -0.5880000000        3.9799200000        6.1296900000        6.6660400000
   217    28     2       -0.4610000000        4.9869700000        6.6757800000        8.9467100000
   218    28     3       -0.1380000000        2.9133600000        3.4973200000        7.6951400000
   219    28     5        0.9110000000        5.2843600000        6.7317800000        7.4931400000
   220    28     2       -0.4610000000        6.5277700000        5.9020800000        7.2779400000
   221    28     3       -0.1380000000        6.4939300000        9.1588400000        7.8387700000
   222    28     3       -0.1380000000        4.4950500000        9.1627700000        6.8099400000
   223    28     4        0.3190000000        5.6296100000        8.4615900000        7.0001400000
   224    28     3       -0.1380000000        6.1668400000        8.4421800000        5.8037400000
   225    29     7       -0.8200000000       -0.6170000000       -3.5512000000        6.9663400000
   226    29     8        0.4100000000       -1.3571000000       -3.4921000000        7.6853400000
   227    29     8        0.4100000000       -0.7768000000       -4.2211000000        6.3017400000
   228    30     7       -0.8200000000       -4.7331000000       -6.0923000000       -4.0249500000
   229    30     8        0.4100000000       -5.4772000000       -6.7095800000       -3.5584200000
   230    30     8        0.4100000000       -3.8521000000       -6.2720000000       -3.5686400000
   231    31     7       -0.8200000000       -4.7490000000       -3.8236000000       -5.4533300000
   232    31     8        0.4100000000       -5.4385000000       -3.8630000000       -6.1909500000
   233    31     8        0.4100000000       -4.6914000000       -4.6977000000       -4.8278100000
   234    32     7       -0.8200000000        7.3654300000        8.0586800000       -4.4332600000
   235    32     8        0.4100000000        6.4262700000        8.1553100000       -4.1678900000
   236    32     8        0.4100000000        7.4938500000        8.0551000000       -5.4645600000
   237    33     7       -0.8200000000       -5.0256000000       -4.3963000000        8.3024900000
   238    33     8        0.4100000000       -5.4518000000       -3.5100000000        8.0856100000
   239    33     8        0.4100000000       -4.0159000000       -4.2874000000        8.4286800000
   240    34     7       -0.8200000000       -0.7708000000        2.3492800000        3.3307400000
   241    34     8        0.4100000000       -1.3194000000        1.6746500000        2.7318400000
   242    34     8        0.4100000000        0.1208000000        2.6177900000        2.9522400000
   243    35     7       -0.8200000000        2.6208100000        5.2572700000       -2.0278900000
   244    35     8        0.4100000000        2.2835700000        4.7523600000       -1.2312800000
   245    35     8        0.4100000000        2.8907500000        4.6473000000       -2.8421900000
   246    36     7       -0.8200000000       -3.1488000000       -1.4804000000        7.6101400000
   247    36     8        0.4100000000       -2.8895000000       -1.4781000000        8.6577300000
   248    36     8        0.4100000000       -2.8810000000       -0.5575000000        7.2654400000
   249    37     7       -0.8200000000        1.6484800000        1.1643200000        0.7424500000
   250    37     8        0.4100000000        2.0656200000        0.4304000000        1.3524400000
   251    37     8        0.4100000000        2.0775000000        2.0907000000        0.9051400000
   252    38     7       -0.8200000000       -0.1002000000        5.1695700000        3.9726400000
   253    38     8        0.4100000000        0.8464000000        5.1870400000        4.3841400000
   254    38     8        0.4100000000       -0.0818000000        5.7994400000        3.1928400000
   255    39     7       -0.8200000000       -1.8651000000       -1.6555000000       -6.9060200000
   256    39     8        0.4100000000       -1.1458000000       -1.7163000000       -7.6542800000
   257    39     8        0.4100000000       -1.4661000000       -0.9936000000       -6.2139500000
   258    40     7       -0.8200000000       -6.0546800000       -6.9748000000        6.2031400000
   259    40     8        0.4100000000       -6.9040200000       -6.8611500000        5.6155400000
   260    40     8        0.4100000000       -5.5047000000       -7.7560700000        5.8383400000
   261    41     7       -0.8200000000       -0.5204000000       -2.4086000000       -4.4662900000
   262    41     8        0.4100000000        0.4772000000       -2.5515000000       -4.3915600000
   263    41     8        0.4100000000       -0.8109000000       -1.6883000000       -3.8117400000
   264    42     7       -0.8200000000       -7.9429600000       -5.3192000000       -7.9690200000
   265    42     8        0.4100000000       -8.4082700000       -4.7068000000       -8.6570300000
   266    42     8        0.4100000000       -8.6876800000       -5.8244000000       -7.4679700000
   267    43     7       -0.8200000000        4.0184700000        7.3885100000       -4.7164000000
   268    43     8        0.4100000000        4.4733400000        7.5478500000       -5.5896800000
   269    43     8        0.4100000000        3.0227400000        7.1481100000       -4.9446000000
   270    44     7       -0.8200000000       -3.3134000000       -7.0386200000       -6.5239100000
   271    44     8        0.4100000000       -3.0675000000       -8.0299200000       -6.3901300000
   272    44     8        0.4100000000       -3.8886000000       -6.5456600000       -5.8299900000
   273    45     7       -0.8200000000       -6.8698000000        1.5373800000       -0.9981200000
   274    45     8        0.4100000000       -7.7080500000        1.5892000000       -0.4148500000
   275    45     8        0.4100000000       -6.1644600000        1.0412700000       -0.4448100000
   276    46     7       -0.8200000000        2.8936400000        3.6499900000        1.8025400000
   277    46     8        0.4100000000        3.0076700000        4.3226600000        2.5745400000
   278    46     8        0.4100000000        3.4379400000        3.9661000000        0.9608400000
   279    47     7       -0.8200000000       -3.8849000000       -4.1960000000        2.8048400000
   280    47     8        0.4100000000       -3.4658000000       -3.2945000000        2.4229400000
   281    47     8        0.4100000000       -4.3112000000       -4.6934000000        2.0381400000
   282    48     7       -0.8200000000       -7.1811800000       -6.9509600000       -2.8565400000
   283    48     8        0.4100000000       -6.7641500000       -7.1539000000       -1.8921900000
   284    48     8        0.4100000000       -7.2272700000       -5.8884000000       -2.8643000000
   285    49     7       -0.8200000000       -1.0109000000       -2.3491000000       -1.6503000000
   286    49     8        0.4100000000       -1.4728000000       -3.2146000000       -1.9914000000