LAMMPS data file
# 14 LI molecules
# 14 TF2 molecules
# 39 wat molecules

8 atom types
5 bond types
8 angle types
6 dihedral types

341 atoms
274 bonds
389 angles
420 dihedrals

    0.0000   16.9073 xlo xhi
    0.0000   16.9207 ylo yhi
    0.0000   16.9298 zlo zhi

Masses

1    6.941  # li LI
2   16.000  # o TF2
3   19.000  # f TF2
4   12.010  # c3 TF2
5   32.060  # sy TF2
6   14.010  # ne TF2
7   16.000  # oh wat
8    1.008  # ho wat

Pair Coeffs

1 0.0182660800896 2.126  # li LI
2 0.209859347635 2.960  # o TF2
3 0.0609584251392 3.118  # f TF2
4 0.10932640151 3.400  # c3 TF2
5 0.249833029536 3.564  # sy TF2
6 0.169885665734 3.250  # ne TF2
7 0.155323242893 3.165  # oh wat
8 0.0 0.000  # ho wat

Bond Coeffs

1 492.669820742  1.466  # harmonic TF2 o sy
2 363.556158739  1.344  # harmonic TF2 c3 f
3 248.732854675  1.782  # harmonic TF2 c3 sy
4 256.928561626  1.752  # harmonic TF2 ne sy
5 529.230180349  1.012  # harmonic wat ho oh

Angle Coeffs

1 41.2525855296  108.48  # harmonic TF2 c3 sy o
2 45.2700110592  121.88  # harmonic TF2 o sy o
3 43.0716472128  107.06  # harmonic TF2 ne sy o
4 81.1647052992  109.67  # harmonic TF2 f c3 sy
5 71.2114987968  107.16  # harmonic TF2 f c3 f
6 39.3938063424  103.12  # harmonic TF2 c3 sy ne
7 109.646127418  119.18  # harmonic TF2 sy ne sy
8 37.924854457  113.24  # harmonic wat ho oh ho

Dihedral Coeffs

1 0.143896516992  3 0 0.0  # charmm TF2 f c3 sy o
2 0.143896516992  3 0 0.0  # charmm TF2 f c3 sy ne
3 0.499666059072  3 180 0.0  # charmm TF2 sy ne sy o
4 6.79544648813  1 180 0.0  # charmm TF2 sy ne sy o
5 0.499666059072  3 180 0.0  # charmm TF2 sy ne sy c3
6 6.79544648813  1 180 0.0  # charmm TF2 sy ne sy c3

Atoms

     1     1     1        0.8000000000        0.0000000000        0.0000000000        0.0000000000
     2     2     1        0.8000000000        3.3037400000       -4.2791500000       -0.6925700000
     3     3     1        0.8000000000        5.8125700000        4.5188200000        2.2676800000
     4     4     1        0.8000000000       -2.5940300000       -2.7303700000        4.9725700000
     5     5     1        0.8000000000       -1.2551600000        1.5505200000       -4.7848800000
     6     6     1        0.8000000000       -8.0991300000        5.6621200000        7.2817700000
     7     7     1        0.8000000000        0.2219900000        5.6399200000        4.6603700000
     8     8     1        0.8000000000        5.7639700000       -0.4245500000        3.9206700000
     9     9     1        0.8000000000       -5.8208300000       -4.7438000000       -5.2978200000
    10    10     1        0.8000000000        5.1545700000        2.6669200000       -0.1970900000
    11    11     1        0.8000000000        4.2956100000       -7.7195700000        5.1552700000
    12    12     1        0.8000000000       -8.0459300000       -1.9621500000        8.3359700000
    13    13     1        0.8000000000       -4.3530300000       -8.2239100000       -3.8158600000
    14    14     1        0.8000000000       -2.1352000000        5.8019200000       -6.1644500000
    15    15     2       -0.4610000000       -2.1659500000        6.9253200000        1.3677400000
    16    15     3       -0.1380000000       -4.6861100000        8.3521200000        2.0827500000
    17    15     4        0.3190000000       -4.0526600000        8.7274100000        0.9822000000
    18    15     5        0.9110000000       -2.9690100000        7.5288200000        0.3073400000
    19    15     2       -0.4610000000       -2.2609000000        8.1405200000       -0.8793200000
    20    15     3       -0.1380000000       -4.9760400000        9.0570300000        0.0867000000
    21    15     6       -0.5880000000       -3.9840200000        6.1110200000       -0.1414400000
    22    15     2       -0.4610000000       -4.6914000000        7.3987200000       -2.2340200000
    23    15     3       -0.1380000000       -3.2757200000        9.8277000000        1.3048700000
    24    15     5        0.9110000000       -4.7880600000        6.0232200000       -1.6549200000
    25    15     2       -0.4610000000       -4.0031800000        5.0399200000       -2.3869700000
    26    15     3       -0.1380000000       -6.5948300000        4.3628200000       -0.7920900000
    27    15     3       -0.1380000000       -6.9812300000        5.3527200000       -2.7040300000
    28    15     4        0.3190000000       -6.4751300000        5.5533200000       -1.4826400000
    29    15     3       -0.1380000000       -7.1207300000        6.4976200000       -0.8708500000
    30    16     2       -0.4610000000       -4.9265400000       -2.4783800000        1.2024900000
    31    16     3       -0.1380000000       -5.9400300000       -5.7262200000        1.3857900000
    32    16     4        0.3190000000       -6.5697300000       -4.6360500000        0.8184300000
    33    16     5        0.9110000000       -6.1904300000       -3.0337800000        1.6806500000
    34    16     2       -0.4610000000       -6.4637300000       -3.1744600000        3.0845500000
    35    16     3       -0.1380000000       -6.1048300000       -4.6065700000       -0.4851200000
    36    16     6       -0.5880000000       -7.3295300000       -1.7515800000        1.4216500000
    37    16     2       -0.4610000000       -7.8559300000        0.5363200000        1.7087000000
    38    16     3       -0.1380000000       -7.9101300000       -4.9040800000        0.9189800000
    39    16     5        0.9110000000       -6.6565300000       -0.1798100000        1.1631600000
    40    16     2       -0.4610000000       -5.4628300000       -0.0037600000        2.0432500000
    41    16     3       -0.1380000000       -6.6280300000       -0.9780700000       -1.2094200000
    42    16     3       -0.1380000000       -4.9426500000        0.3886400000       -0.8310000000
    43    16     4        0.3190000000       -6.2699300000        0.2001800000       -0.5773700000
    44    16     3       -0.1380000000       -7.0962300000        1.2053400000       -1.0608400000
    45    17     2       -0.4610000000       -3.9799200000       -5.1797400000        3.6880700000
    46    17     3       -0.1380000000       -6.1975300000       -6.7170900000        4.7307700000
    47    17     4        0.3190000000       -5.3508300000       -6.4055700000        5.7379700000
    48    17     5        0.9110000000       -3.7040500000       -5.9083100000        5.0040700000
    49    17     2       -0.4610000000       -2.8117100000       -7.0542900000        5.1314700000
    50    17     3       -0.1380000000       -5.9230300000       -5.4755900000        6.4556700000
    51    17     6       -0.5880000000       -2.8467300000       -4.7009200000        5.8910700000
    52    17     2       -0.4610000000       -2.7346100000       -3.7144000000        8.2006700000
    53    17     3       -0.1380000000       -5.2107300000       -7.4571300000        6.5933700000
    54    17     5        0.9110000000       -2.3901100000       -5.0083800000        7.5314700000
    55    17     2       -0.4610000000       -2.9610300000       -6.1654100000        8.1056700000
    56    17     3       -0.1380000000       -0.0035200000       -4.0976500000        6.9907700000
    57    17     3       -0.1380000000       -0.5378600000       -6.1268600000        6.2754700000
    58    17     4        0.3190000000       -0.6552900000       -5.2674200000        7.2849700000
    59    17     3       -0.1380000000       -0.1069000000       -5.8224800000        8.3403700000
    60    18     2       -0.4610000000        6.7922700000       -2.0827500000        7.5716700000
    61    18     3       -0.1380000000        4.5944300000       -1.8437000000        9.4320700000
    62    18     4        0.3190000000        4.1671100000       -1.6731200000        8.2345700000
    63    18     5        0.9110000000        5.4275700000       -2.2032800000        7.0455700000
    64    18     2       -0.4610000000        5.3933700000       -1.4588800000        5.7604700000
    65    18     3       -0.1380000000        2.9471000000       -2.2638000000        8.0678700000
    66    18     6       -0.5880000000        5.4928700000       -3.9418200000        6.9711700000
    67    18     2       -0.4610000000        5.4425700000       -6.1287100000        5.5285700000
    68    18     3       -0.1380000000        3.8559400000       -0.3794700000        8.0354700000
    69    18     5        0.9110000000        5.7168700000       -4.6637700000        5.4472700000
    70    18     2       -0.4610000000        4.9220100000       -3.8603100000        4.5086700000
    71    18     3       -0.1380000000        7.7001700000       -3.1221400000        4.7395700000
    72    18     3       -0.1380000000        7.6632700000       -4.9761300000        3.7126700000
    73    18     4        0.3190000000        7.4392700000       -4.4264300000        4.9174700000
    74    18     3       -0.1380000000        8.3066700000       -5.0555100000        5.6651700000
    75    19     2       -0.4610000000       -1.2832900000        0.7044100000        7.6702700000
    76    19     3       -0.1380000000       -4.0084900000        1.9598200000        7.3209700000
    77    19     4        0.3190000000       -3.7263800000        1.5709200000        8.5778700000
    78    19     5        0.9110000000       -1.9464600000        1.3769500000        8.7987700000
    79    19     2       -0.4610000000       -1.6518400000        0.9063400000       10.1556700000
    80    19     3       -0.1380000000       -4.3662100000        2.4189200000        9.3630700000
    81    19     6       -0.5880000000       -1.0389800000        2.9382200000        8.6734700000
    82    19     2       -0.4610000000       -0.2358300000        4.7275200000        9.9779700000
    83    19     3       -0.1380000000       -4.2195700000        0.3284200000        8.8567700000
    84    19     5        0.9110000000        0.2275400000        3.3187200000        9.7354700000
    85    19     2       -0.4610000000        0.2451700000        2.5761200000       11.0612900000
    86    19     3       -0.1380000000        1.8321400000        1.6829200000        8.4185700000
    87    19     3       -0.1380000000        2.8350500000        3.1746200000        9.7243700000
    88    19     4        0.3190000000        1.7833400000        2.9247200000        8.9040700000
    89    19     3       -0.1380000000        1.9430800000        3.7138200000        7.8396700000
    90    20     2       -0.4610000000        6.3219700000        6.7227200000        1.8654400000
    91    20     3       -0.1380000000        8.0496700000        6.7758200000        4.4434700000
    92    20     4        0.3190000000        8.0504700000        7.9239200000        3.6741700000
    93    20     5        0.9110000000        6.6435700000        7.9610200000        2.5518100000
    94    20     2       -0.4610000000        6.6133700000        9.1336500000        1.6832800000
    95    20     3       -0.1380000000        7.9400700000        8.9541000000        4.5177700000
    96    20     6       -0.5880000000        5.0574700000        8.2430200000        3.3738700000
    97    20     2       -0.4610000000        4.0313100000        5.9474200000        2.5716300000
    98    20     3       -0.1380000000        9.2080700000        8.0447200000        2.9191000000
    99    20     5        0.9110000000        3.7020200000        7.3395200000        2.7122800000
   100    20     2       -0.4610000000        2.6006000000        7.8011200000        3.4861400000
   101    20     3       -0.1380000000        2.3329400000        7.5214200000        0.5351400000
   102    20     3       -0.1380000000        4.3959600000        7.9644200000        0.2556400000
   103    20     4        0.3190000000        3.4025400000        8.1193200000        1.1003900000
   104    20     3       -0.1380000000        3.2516400000        9.4772000000        1.2656300000
   105    21     2       -0.4610000000       -5.4992300000       -0.0000300000       -5.4312000000
   106    21     3       -0.1380000000       -9.2728300000        0.9320900000       -5.4931900000
   107    21     4        0.3190000000       -7.9518300000        1.2444500000       -5.4121200000
   108    21     5        0.9110000000       -6.9066300000       -0.2266600000       -5.7529900000
   109    21     2       -0.4610000000       -7.0514300000       -0.9150000000       -7.0416300000
   110    21     3       -0.1380000000       -7.6978300000        2.2207200000       -6.3021500000
   111    21     6       -0.5880000000       -7.3426300000       -1.5903600000       -4.7305500000
   112    21     2       -0.4610000000       -9.1666300000       -2.3034500000       -6.5352300000
   113    21     3       -0.1380000000       -7.7922300000        1.7345200000       -4.1756800000
   114    21     5        0.9110000000       -8.6188300000       -2.7209400000       -5.2153800000
   115    21     2       -0.4610000000       -7.7115300000       -3.8541500000       -5.3805500000
   116    21     3       -0.1380000000      -10.1265300000       -1.3833800000       -3.4519400000
   117    21     3       -0.1380000000       -9.1649300000       -3.0362400000       -2.7117400000
   118    21     4        0.3190000000       -9.7912300000       -2.6779800000       -3.8325500000
   119    21     3       -0.1380000000      -10.8177300000       -3.3902900000       -4.0788900000
   120    22     2       -0.4610000000        7.4703700000        6.9833200000       -3.2401300000
   121    22     3       -0.1380000000        6.2168700000       10.0873600000       -3.0684100000
   122    22     4        0.3190000000        7.3923700000        9.6595800000       -2.6202300000
   123    22     5        0.9110000000        8.0907700000        8.2383200000       -3.5936000000
   124    22     2       -0.4610000000        9.4930700000        8.2035200000       -3.2238600000
   125    22     3       -0.1380000000        8.1185700000       10.8613100000       -2.7591600000
   126    22     6       -0.5880000000        7.9706700000        8.3031200000       -5.2372700000
   127    22     2       -0.4610000000        9.7571700000       10.3079200000       -5.1986600000
   128    22     3       -0.1380000000        7.2006700000        9.3331900000       -1.3004800000
   129    22     5        0.9110000000        8.9984700000        9.4308800000       -6.1720600000
   130    22     2       -0.4610000000        9.8692700000        8.4827500000       -6.9037300000
   131    22     3       -0.1380000000        6.9079700000       10.8244900000       -6.7957300000
   132    22     3       -0.1380000000        7.6226700000        9.4353300000       -8.3924300000
   133    22     4        0.3190000000        7.9877700000       10.3315700000       -7.4029300000
   134    22     3       -0.1380000000        8.7410700000       11.3264400000       -7.9514300000
   135    23     2       -0.4610000000        3.5348900000        0.6204900000        2.9012600000
   136    23     3       -0.1380000000        1.4308100000       -0.1797700000        5.2413700000
   137    23     4        0.3190000000        1.0743300000        0.3853400000        4.0773700000
   138    23     5        0.9110000000        2.1575000000        0.0664900000        2.7037100000
   139    23     2       -0.4610000000        1.5180300000        0.4854800000        1.4256400000
   140    23     3       -0.1380000000       -0.1331900000       -0.0959300000        3.7595700000
   141    23     6       -0.5880000000        2.5642600000       -1.6087700000        2.6263800000
   142    23     2       -0.4610000000        0.1698400000       -2.0083700000        1.7354600000
   143    23     3       -0.1380000000        0.8553400000        1.7512200000        4.4302700000
   144    23     5        0.9110000000        1.4839600000       -2.6611900000        1.8613900000
   145    23     2       -0.4610000000        2.2174100000       -3.1834700000        0.7176300000
   146    23     3       -0.1380000000        1.0536400000       -3.4668400000        4.2210700000
   147    23     3       -0.1380000000        2.2582800000       -4.8000800000        3.0106400000
   148    23     4        0.3190000000        1.1731100000       -4.0237400000        3.0152400000
   149    23     3       -0.1380000000        0.0432300000       -4.6577100000        2.6485700000
   150    24     2       -0.4610000000       -7.5449300000        3.1216200000        4.2517700000
   151    24     3       -0.1380000000       -8.2046300000        0.8704000000        5.6910700000
   152    24     4        0.3190000000       -7.1596300000        1.5279200000        6.3223700000
   153    24     5        0.9110000000       -6.5074300000        2.7621200000        5.2239700000
   154    24     2       -0.4610000000       -5.1785300000        2.4753200000        4.6958700000
   155    24     3       -0.1380000000       -7.7078300000        2.0087200000        7.4806700000
   156    24     6       -0.5880000000       -6.4642300000        4.1742200000        6.1923700000
   157    24     2       -0.4610000000       -6.2828300000        6.3518200000        5.8874700000
   158    24     3       -0.1380000000       -6.2528300000        0.6366100000        6.6061700000
   159    24     5        0.9110000000       -5.2383300000        5.3150200000        5.8503700000
   160    24     2       -0.4610000000       -4.3864700000        5.0355200000        6.9376700000
   161    24     3       -0.1380000000       -3.9667400000        6.6291200000        4.0513700000
   162    24     3       -0.1380000000       -5.4135300000        5.2177200000        3.2365300000
   163    24     4        0.3190000000       -4.4221200000        5.3952200000        4.2182700000
   164    24     3       -0.1380000000       -3.4952200000        4.4802200000        4.0667700000
   165    25     2       -0.4610000000       -0.3215100000       -0.2151400000       -4.4328400000
   166    25     3       -0.1380000000        0.2002800000       -1.8298600000       -7.1440300000
   167    25     4        0.3190000000       -0.7112800000       -2.2945800000       -6.2510100000
   168    25     5        0.9110000000       -0.3737000000       -1.6484800000       -4.6020200000
   169    25     2       -0.4610000000        0.4944800000       -2.5704100000       -3.9396500000
   170    25     3       -0.1380000000       -1.9461100000       -2.0672400000       -6.7433300000
   171    25     6       -0.5880000000       -1.7793500000       -1.9236500000       -3.6596200000
   172    25     2       -0.4610000000       -0.3490200000       -1.8869200000       -1.4303900000
   173    25     3       -0.1380000000       -0.6151000000       -3.6480400000       -6.2660200000
   174    25     5        0.9110000000       -1.6430500000       -2.3068500000       -1.9139900000
   175    25     2       -0.4610000000       -2.7197100000       -1.3856500000       -1.5697700000
   176    25     3       -0.1380000000       -2.5730000000       -4.0434500000       -0.1743700000
   177    25     3       -0.1380000000       -0.7648800000       -4.7367800000       -1.4100600000
   178    25     4        0.3190000000       -1.9932800000       -3.9940300000       -1.4080800000
   179    25     3       -0.1380000000       -2.7670100000       -4.6442500000       -2.2914000000
   180    26     2       -0.4610000000        5.3604700000        3.9431200000        4.4252700000
   181    26     3       -0.1380000000        3.5855100000        2.4831200000        6.0486700000
   182    26     4        0.3190000000        4.8454300000        2.7426200000        6.5466700000
   183    26     5        0.9110000000        5.7707700000        4.1311200000        5.7798700000
   184    26     2       -0.4610000000        7.1942700000        4.0953200000        6.1837700000
   185    26     3       -0.1380000000        4.8123500000        2.8958200000        7.8773700000
   186    26     6       -0.5880000000        4.9850100000        5.5880200000        6.1528700000
   187    26     2       -0.4610000000        7.0218700000        6.3140200000        7.5443700000
   188    26     3       -0.1380000000        5.5083700000        1.6463200000        6.2312700000
   189    26     5        0.9110000000        5.6631700000        6.7393200000        7.2024700000
   190    26     2       -0.4610000000        5.6938700000        7.9060200000        6.2221700000
   191    26     3       -0.1380000000        5.0029700000        8.2069200000        9.3178700000
   192    26     3       -0.1380000000        4.1856800000        6.1614200000        9.2135700000
   193    26     4        0.3190000000        4.4819200000        7.2002200000        8.4695700000
   194    26     3       -0.1380000000        3.3017600000        7.5993200000        7.9113700000
   195    27     2       -0.4610000000        0.9742300000        8.1491200000       -3.5690900000
   196    27     3       -0.1380000000        2.8175800000        6.2891200000       -2.0447500000
   197    27     4        0.3190000000        3.3998900000        7.0610200000       -3.0817800000
   198    27     5        0.9110000000        2.1731200000        7.5712200000       -4.2367500000
   199    27     2       -0.4610000000        1.8059100000        6.5968200000       -5.3056800000
   200    27     3       -0.1380000000        3.9794300000        8.0146200000       -2.5157000000
   201    27     6       -0.5880000000        2.7883800000        8.9294600000       -5.1639700000
   202    27     2       -0.4610000000        0.5436400000        9.8346200000       -5.8113500000
   203    27     3       -0.1380000000        4.3344400000        6.2581200000       -3.6602900000
   204    27     5        0.9110000000        1.8438500000       10.2974500000       -5.3439300000
   205    27     2       -0.4610000000        1.8663000000       10.9191200000       -4.0099400000
   206    27     3       -0.1380000000        2.5658600000       10.3357200000       -7.8179300000
   207    27     3       -0.1380000000        3.9562900000       11.3365500000       -6.5256300000
   208    27     4        0.3190000000        2.6404200000       11.0996000000       -6.7255300000
   209    27     3       -0.1380000000        2.0161000000       12.2877500000       -6.9154300000
   210    28     2       -0.4610000000        3.2231300000        2.1403200000       -0.9729500000
   211    28     3       -0.1380000000        4.5151600000        0.6628200000       -3.3324200000
   212    28     4        0.3190000000        3.2802000000        1.1101000000       -3.3684000000
   213    28     5        0.9110000000        2.4595800000        1.1040600000       -1.6929200000
   214    28     2       -0.4610000000        2.3874500000       -0.2698200000       -1.1450200000
   215    28     3       -0.1380000000        3.2525500000        2.2841200000       -4.1628100000
   216    28     6       -0.5880000000        0.8300100000        1.7365200000       -1.7805700000
   217    28     2       -0.4610000000        1.3997300000        4.2202200000       -2.7771300000
   218    28     3       -0.1380000000        2.5635000000        0.2582700000       -4.1059700000
   219    28     5        0.9110000000        0.4882000000        3.4936200000       -1.8549600000
   220    28     2       -0.4610000000       -0.9120400000        3.3893200000       -2.3564200000
   221    28     3       -0.1380000000        0.0417000000        5.2947200000       -0.0839500000
   222    28     3       -0.1380000000        1.7517600000        3.9916200000        0.3976300000
   223    28     4        0.3190000000        0.5253600000        4.0488200000       -0.1245800000
   224    28     3       -0.1380000000       -0.3221700000        3.2765200000        0.5738100000
   225    29     7       -0.8200000000        2.4897600000       -6.7494100000        5.3750700000
   226    29     8        0.4100000000        1.8775200000       -7.3812700000        4.8428700000
   227    29     8        0.4100000000        2.1201100000       -5.8224400000        5.5090700000
   228    30     7       -0.8200000000        4.9779700000       -0.7692000000        0.6029800000
   229    30     8        0.4100000000        4.0656400000       -1.2781000000        0.5176200000
   230    30     8        0.4100000000        5.5701700000       -1.3064100000        1.2611100000
   231    31     7       -0.8200000000       -2.3319800000        4.5071200000       -4.3851000000
   232    31     8        0.4100000000       -1.5527600000        4.4786200000       -3.7930400000
   233    31     8        0.4100000000       -3.1617300000        4.4676200000       -3.8593600000
   234    32     7       -0.8200000000        2.6467400000       -2.9631100000       -2.2448400000
   235    32     8        0.4100000000        2.2403900000       -2.0981400000       -1.8964100000
   236    32     8        0.4100000000        2.0284000000       -3.1435200000       -3.0411500000
   237    33     7       -0.8200000000       -0.1530900000        7.6299200000        7.9841700000
   238    33     8        0.4100000000       -0.7678200000        6.9844200000        8.5106700000
   239    33     8        0.4100000000        0.5376800000        8.0862200000        8.6415700000
   240    34     7       -0.8200000000       -4.1358200000        7.1752200000       -5.3593800000
   241    34     8        0.4100000000       -4.2664400000        7.6825200000       -6.2700400000
   242    34     8        0.4100000000       -4.6567900000        6.2929200000       -5.3809200000
   243    35     7       -0.8200000000       -5.0114300000       -3.0839600000       -3.7834800000
   244    35     8        0.4100000000       -4.0243000000       -2.7909700000       -3.8783200000
   245    35     8        0.4100000000       -5.6869300000       -2.3264600000       -3.6631400000
   246    36     7       -0.8200000000       -7.5565300000        6.0094200000       -7.5880300000
   247    36     8        0.4100000000       -7.1840300000        6.8519200000       -7.0686300000
   248    36     8        0.4100000000       -8.3222300000        5.7346200000       -6.9670300000
   249    37     7       -0.8200000000       -6.8151300000       -2.3118000000        6.4683700000
   250    37     8        0.4100000000       -5.8338300000       -1.9027000000        6.1876700000
   251    37     8        0.4100000000       -7.1783300000       -3.0379000000        5.7815700000
   252    38     7       -0.8200000000       -0.0687900000        5.5045200000        2.6264500000
   253    38     8        0.4100000000        0.4129500000        5.1450200000        1.8346100000
   254    38     8        0.4100000000       -0.8079200000        6.1050200000        2.2023000000
   255    39     7       -0.8200000000       -2.0995300000       -0.9587700000        5.8658700000
   256    39     8        0.4100000000       -1.3765200000       -0.4492100000        6.3717700000
   257    39     8        0.4100000000       -2.5688700000       -0.5494300000        5.0004700000
   258    40     7       -0.8200000000       -0.9363400000        7.3350200000       -5.7986900000
   259    40     8        0.4100000000       -0.6954700000        8.3182200000       -5.5068500000
   260    40     8        0.4100000000       -0.0418300000        6.8589200000       -5.5569900000
   261    41     7       -0.8200000000        7.0545700000        1.1766700000        3.5118700000
   262    41     8        0.4100000000        7.3991700000        1.9689200000        4.0367700000
   263    41     8        0.4100000000        7.8478700000        0.9270300000        2.9114300000
   264    42     7       -0.8200000000        2.1476600000        5.7062200000        5.6899700000
   265    42     8        0.4100000000        3.0669500000        5.3071200000        5.7596700000
   266    42     8        0.4100000000        1.9255600000        6.4048200000        6.3145700000
   267    43     7       -0.8200000000        5.3820700000       -5.2380200000        1.9035200000
   268    43     8        0.4100000000        4.7397300000       -5.2619100000        2.6893500000
   269    43     8        0.4100000000        5.8275700000       -6.1626800000        1.6728400000
   270    44     7       -0.8200000000       -3.4082400000        3.1915200000        1.1753700000
   271    44     8        0.4100000000       -2.3862400000        3.4465200000        1.2064200000
   272    44     8        0.4100000000       -3.9856500000        4.0039200000        0.8909400000
   273    45     7       -0.8200000000       -2.7431100000        6.1984200000       -8.2086300000
   274    45     8        0.4100000000       -3.2472800000        7.1112200000       -8.1632300000
   275    45     8        0.4100000000       -3.3798900000        5.5760200000       -8.7419300000
   276    46     7       -0.8200000000       -4.9781500000       -3.4328200000       -6.7958300000
   277    46     8        0.4100000000       -4.1605800000       -3.6902700000       -7.4180300000
   278    46     8        0.4100000000       -5.0279300000       -2.4399500000       -6.3813300000
   279    47     7       -0.8200000000        5.3093700000        4.9185200000       -0.1102000000
   280    47     8        0.4100000000        5.2771700000        5.9234200000        0.0430200000
   281    47     8        0.4100000000        6.0782700000        4.7845200000       -0.7789800000
   282    48     7       -0.8200000000        7.3063700000        4.3529200000       -1.7604800000
   283    48     8        0.4100000000        7.3651700000        5.2039200000       -2.3659500000
   284    48     8        0.4100000000        8.0921700000        3.6984200000       -1.9623700000
   285    49     7       -0.8200000000        6.3810700000        1.0313800000       -0.6671500000
   286    49     8        0.4100000000        5.8496700000        0.2372600000       -0.2340400000