LAMMPS data file
# 14 LI molecules
# 14 TF2 molecules
# 39 wat molecules

8 atom types
5 bond types
8 angle types
6 dihedral types

341 atoms
274 bonds
389 angles
420 dihedrals

    0.0000   16.5843 xlo xhi
    0.0000   16.5843 ylo yhi
    0.0000   16.5843 zlo zhi

Masses

1    6.941  # li LI
2   16.000  # o TF2
3   19.000  # f TF2
4   12.010  # c3 TF2
5   32.060  # sy TF2
6   14.010  # ne TF2
7   16.000  # oh wat
8    1.008  # ho wat

Pair Coeffs

1 0.0182660800896 2.126  # li LI
2 0.209859347635 2.960  # o TF2
3 0.0609584251392 3.118  # f TF2
4 0.10932640151 3.400  # c3 TF2
5 0.249833029536 3.564  # sy TF2
6 0.169885665734 3.250  # ne TF2
7 0.155323242893 3.165  # oh wat
8 0.0 0.000  # ho wat

Bond Coeffs

1 492.669820742  1.466  # harmonic TF2 o sy
2 363.556158739  1.344  # harmonic TF2 c3 f
3 248.732854675  1.782  # harmonic TF2 c3 sy
4 256.928561626  1.752  # harmonic TF2 ne sy
5 529.230180349  1.012  # harmonic wat ho oh

Angle Coeffs

1 41.2525855296  108.48  # harmonic TF2 c3 sy o
2 45.2700110592  121.88  # harmonic TF2 o sy o
3 43.0716472128  107.06  # harmonic TF2 ne sy o
4 81.1647052992  109.67  # harmonic TF2 f c3 sy
5 71.2114987968  107.16  # harmonic TF2 f c3 f
6 39.3938063424  103.12  # harmonic TF2 c3 sy ne
7 109.646127418  119.18  # harmonic TF2 sy ne sy
8 37.924854457  113.24  # harmonic wat ho oh ho

Dihedral Coeffs

1 0.143896516992  3 0 0.0  # charmm TF2 f c3 sy o
2 0.143896516992  3 0 0.0  # charmm TF2 f c3 sy ne
3 0.499666059072  3 180 0.0  # charmm TF2 sy ne sy o
4 6.79544648813  1 180 0.0  # charmm TF2 sy ne sy o
5 0.499666059072  3 180 0.0  # charmm TF2 sy ne sy c3
6 6.79544648813  1 180 0.0  # charmm TF2 sy ne sy c3

Atoms

     1     1     1        0.8000000000        0.0000000000        0.0000000000        0.0000000000
     2     2     1        0.8000000000       -3.7986800000       -4.9253000000       -6.5984200000
     3     3     1        0.8000000000       -6.9431600000       -2.5180000000        6.4159300000
     4     4     1        0.8000000000       -1.9534500000       -7.1506200000        1.3353800000
     5     5     1        0.8000000000        7.1813400000       -5.6911700000        1.6931700000
     6     6     1        0.8000000000       -3.6157100000        4.7592100000       -0.2629700000
     7     7     1        0.8000000000        3.0025900000        3.4535700000       -3.2673200000
     8     8     1        0.8000000000        0.2320600000       -7.3719400000       -5.6990200000
     9     9     1        0.8000000000        5.2102000000        5.6672300000        0.6472900000
    10    10     1        0.8000000000        4.9475300000        1.3841500000        0.9531400000
    11    11     1        0.8000000000       -0.4256600000       -5.1962000000        5.7508300000
    12    12     1        0.8000000000        3.5755300000        2.2537000000       -7.4566200000
    13    13     1        0.8000000000        8.0007400000        6.9256500000        6.9295900000
    14    14     1        0.8000000000        5.5063100000        1.3835100000        6.7855000000
    15    15     2       -0.4610000000        5.2536100000        3.2297300000       -2.6562400000
    16    15     3       -0.1380000000        8.1690400000        4.1589000000       -2.4681200000
    17    15     4        0.3190000000        7.8950400000        3.0199600000       -1.8573900000
    18    15     5        0.9110000000        6.0962400000        2.9379000000       -1.5123900000
    19    15     2       -0.4610000000        5.5726500000        3.7257400000       -0.3164700000
    20    15     3       -0.1380000000        8.3713400000        2.0733500000       -2.6300400000
    21    15     6       -0.5880000000        5.7333400000        1.3411300000       -1.0447700000
    22    15     2       -0.4610000000        4.0675100000       -0.3614000000       -0.6507800000
    23    15     3       -0.1380000000        8.6096400000        2.9490200000       -0.7732600000
    24    15     5        0.9110000000        4.4238100000        0.4561000000       -1.8066700000
    25    15     2       -0.4610000000        3.3773100000        1.3661100000       -2.2766300000
    26    15     3       -0.1380000000        6.3238400000       -0.9715000000       -2.7797200000
    27    15     3       -0.1380000000        5.6867400000        0.6444000000       -4.0645200000
    28    15     4        0.3190000000        5.2951500000       -0.2577000000       -3.1645200000
    29    15     3       -0.1380000000        4.4858800000       -1.0547000000       -3.8552200000
    30    16     2       -0.4610000000        2.9833800000        5.1454400000        0.4782500000
    31    16     3       -0.1380000000        1.0761500000        7.0028200000       -1.3936000000
    32    16     4        0.3190000000        0.5524600000        6.0256500000       -0.6028300000
    33    16     5        0.9110000000        1.7807400000        4.7511800000       -0.2392100000
    34    16     2       -0.4610000000        1.9653300000        4.0904800000       -1.5494800000
    35    16     3       -0.1380000000        0.1054000000        6.6016500000        0.5125700000
    36    16     6       -0.5880000000        0.8892300000        3.5542100000        0.6183300000
    37    16     2       -0.4610000000        1.0559700000        1.1241000000        1.5155600000
    38    16     3       -0.1380000000       -0.5448000000        5.4801100000       -1.2036100000
    39    16     5        0.9110000000        1.6759100000        2.4569500000        1.6829400000
    40    16     2       -0.4610000000        3.1268400000        2.4774400000        1.4085000000
    41    16     3       -0.1380000000        1.9915600000        2.4341600000        4.4055400000
    42    16     3       -0.1380000000        0.0326600000        2.9305600000        3.7302800000
    43    16     4        0.3190000000        1.2871700000        3.0758000000        3.4144700000
    44    16     3       -0.1380000000        1.5780500000        4.3888100000        3.4576100000
    45    17     2       -0.4610000000        5.2004800000       -6.0990400000        1.5244700000
    46    17     3       -0.1380000000        2.6346700000       -7.0808800000        3.2781200000
    47    17     4        0.3190000000        3.0301400000       -7.5378100000        2.0859900000
    48    17     5        0.9110000000        3.7796200000       -6.1968200000        1.1311400000
    49    17     2       -0.4610000000        2.8587300000       -5.0373000000        1.0429900000
    50    17     3       -0.1380000000        3.8433200000       -8.6315800000        2.1083400000
    51    17     6       -0.5880000000        3.9394300000       -6.7196900000       -0.5165700000
    52    17     2       -0.4610000000        3.5660000000       -6.7335200000       -2.8571200000
    53    17     3       -0.1380000000        1.9917800000       -8.0571800000        1.4871000000
    54    17     5        0.9110000000        3.0572400000       -5.9159600000       -1.8042900000
    55    17     2       -0.4610000000        1.6567300000       -5.9894500000       -1.3401200000
    56    17     3       -0.1380000000        4.9353200000       -4.1303000000       -2.1115900000
    57    17     3       -0.1380000000        3.0026600000       -3.2975000000       -1.3390600000
    58    17     4        0.3190000000        3.5692900000       -4.2806000000       -2.2133200000
    59    17     3       -0.1380000000        3.1747800000       -4.0079000000       -3.4757200000
    60    18     2       -0.4610000000        0.1914000000        5.7504100000       -4.6747200000
    61    18     3       -0.1380000000       -3.4537500000        4.0918200000       -4.7359200000
    62    18     4        0.3190000000       -2.1622500000        4.2942800000       -4.2530200000
    63    18     5        0.9110000000       -0.9802800000        5.1603600000       -5.3089200000
    64    18     2       -0.4610000000       -1.6240900000        5.9314000000       -6.3521200000
    65    18     3       -0.1380000000       -2.3574500000        4.9929700000       -3.1876200000
    66    18     6       -0.5880000000       -0.1425400000        3.8904600000       -6.1698200000
    67    18     2       -0.4610000000        0.9106700000        5.4958500000       -7.7651200000
    68    18     3       -0.1380000000       -1.6529300000        3.1510700000       -3.8337200000
    69    18     5        0.9110000000        0.5663200000        4.1064500000       -7.7148200000
    70    18     2       -0.4610000000        1.6402900000        3.1561300000       -7.7465200000
    71    18     3       -0.1380000000       -0.0774500000        4.5147200000      -10.1902900000
    72    18     3       -0.1380000000       -1.7605200000        4.5855900000       -8.8350200000
    73    18     4        0.3190000000       -0.6129100000        3.9696700000       -9.0901200000
    74    18     3       -0.1380000000       -0.8180500000        2.6912400000       -9.4335500000
    75    19     2       -0.4610000000       -1.6442300000       -7.8919300000       -5.0218200000
    76    19     3       -0.1380000000       -5.4245600000       -7.8530600000       -3.7180200000
    77    19     4        0.3190000000       -4.4625600000       -7.9609200000       -4.6618200000
    78    19     5        0.9110000000       -2.7314100000       -7.8244300000       -4.0189200000
    79    19     2       -0.4610000000       -2.8069000000       -8.7955400000       -2.8745200000
    80    19     3       -0.1380000000       -4.5813600000       -9.1734000000       -5.2336200000
    81    19     6       -0.5880000000       -2.1524700000       -6.4675500000       -3.0544200000
    82    19     2       -0.4610000000       -3.7027600000       -5.0500000000       -4.3595200000
    83    19     3       -0.1380000000       -4.6744600000       -7.0741300000       -5.6106200000
    84    19     5        0.9110000000       -3.2951200000       -5.1427000000       -2.9799200000
    85    19     2       -0.4610000000       -4.2712500000       -5.2140000000       -1.9382900000
    86    19     3       -0.1380000000       -2.7006500000       -2.5064000000       -2.5738600000
    87    19     3       -0.1380000000       -1.1918400000       -3.6446000000       -3.5821200000
    88    19     4        0.3190000000       -2.1266000000       -3.6838000000       -2.5982500000
    89    19     3       -0.1380000000       -1.4901600000       -3.9335000000       -1.4517100000
    90    20     2       -0.4610000000       -2.2378600000       -0.5329000000        0.0387300000
    91    20     3       -0.1380000000       -4.5075600000       -0.1569000000       -2.0464300000
    92    20     4        0.3190000000       -4.7720600000       -0.0271000000       -0.7134800000
    93    20     5        0.9110000000       -3.5994700000       -1.0303000000        0.3389700000
    94    20     2       -0.4610000000       -3.8592300000       -2.4800000000        0.4485500000
    95    20     3       -0.1380000000       -4.6586600000        1.3250000000       -0.4702100000
    96    20     6       -0.5880000000       -4.0747900000       -0.8316000000        1.9744100000
    97    20     2       -0.4610000000       -2.4400600000        1.1664000000        2.4476100000
    98    20     3       -0.1380000000       -6.0470600000       -0.4060000000       -0.4991900000
    99    20     5        0.9110000000       -3.0466600000       -0.0082000000        3.1065200000
   100    20     2       -0.4610000000       -4.1220100000        0.3089000000        4.0717100000
   101    20     3       -0.1380000000       -0.7600900000       -1.2097000000        2.7198800000
   102    20     3       -0.1380000000       -2.1999100000       -2.3472000000        3.7980100000
   103    20     4        0.3190000000       -1.7519400000       -1.1426000000        3.6015000000
   104    20     3       -0.1380000000       -1.3118000000       -0.6376000000        4.7491200000
   105    21     2       -0.4610000000       -2.5042200000       -1.9578000000        7.5224800000
   106    21     3       -0.1380000000       -3.3096500000        1.1216000000        7.2423900000
   107    21     4        0.3190000000       -3.9356700000        0.3409000000        8.1522800000
   108    21     5        0.9110000000       -3.8341300000       -1.4264000000        7.8452800000
   109    21     2       -0.4610000000       -4.8866600000       -1.6817000000        6.8018600000
   110    21     3       -0.1380000000       -3.4231200000        0.6719000000        9.3114800000
   111    21     6       -0.5880000000       -4.3119400000       -2.2218000000        9.2723800000
   112    21     2       -0.4610000000       -6.8341600000       -1.9602000000        8.5137800000
   113    21     3       -0.1380000000       -5.2054600000        0.7972000000        8.1536800000
   114    21     5        0.9110000000       -5.9918600000       -2.3458000000        9.6249800000
   115    21     2       -0.4610000000       -5.8764600000       -3.7819000000        9.8471800000
   116    21     3       -0.1380000000       -5.5824600000       -1.8000000000       12.0791800000
   117    21     3       -0.1380000000       -7.6656600000       -1.5575000000       11.4272800000
   118    21     4        0.3190000000       -6.3554600000       -1.4072000000       11.0980800000
   119    21     3       -0.1380000000       -6.2442600000       -0.0752000000       10.9507800000
   120    22     2       -0.4610000000       -6.8264600000       -7.1796500000        7.0946200000
   121    22     3       -0.1380000000       -7.9094600000       -6.2202400000        9.7573800000
   122    22     4        0.3190000000       -8.5413600000       -5.6726800000        8.6667800000
   123    22     5        0.9110000000       -7.5073600000       -5.9006400000        7.1621400000
   124    22     2       -0.4610000000       -6.7786600000       -4.6322000000        6.9650200000
   125    22     3       -0.1380000000       -9.6900600000       -6.3355400000        8.5848800000
   126    22     6       -0.5880000000       -8.4817600000       -5.6002900000        5.7335300000
   127    22     2       -0.4610000000       -9.6272600000       -6.8064100000        3.7038100000
   128    22     3       -0.1380000000       -8.6728600000       -4.4259000000        8.9443800000
   129    22     5        0.9110000000       -9.6756600000       -6.7670600000        5.1876600000
   130    22     2       -0.4610000000       -9.3149600000       -8.0244800000        5.9511100000
   131    22     3       -0.1380000000      -11.8231000000       -6.5618100000        6.8579900000
   132    22     3       -0.1380000000      -12.1615300000       -6.1839900000        4.7506900000
   133    22     4        0.3190000000      -11.2683500000       -6.0616700000        5.7306000000
   134    22     3       -0.1380000000      -11.2115200000       -4.6803000000        5.7116700000
   135    23     2       -0.4610000000        2.8468600000       -3.9827000000       -7.5319200000
   136    23     3       -0.1380000000        5.4908400000       -3.2629000000       -6.1091200000
   137    23     4        0.3190000000        5.0173600000       -2.4936000000       -7.1389200000
   138    23     5        0.9110000000        3.3127100000       -2.5922000000       -7.4418200000
   139    23     2       -0.4610000000        2.9177900000       -1.6096000000       -8.4838200000
   140    23     3       -0.1380000000        5.3388900000       -1.2278000000       -6.8922200000
   141    23     6       -0.5880000000        2.4157000000       -2.1566000000       -6.0026200000
   142    23     2       -0.4610000000        1.3526900000       -0.5274000000       -4.4792200000
   143    23     3       -0.1380000000        5.7299400000       -2.9455000000       -8.2093200000
   144    23     5        0.9110000000        1.7148400000       -0.5661000000       -5.8860200000
   145    23     2       -0.4610000000        2.6290400000        0.4063000000       -6.4956200000
   146    23     3       -0.1380000000        0.3282200000       -0.6312000000       -8.1925200000
   147    23     3       -0.1380000000       -0.5415900000        0.6316000000       -6.7068200000
   148    23     4        0.3190000000        0.1805300000       -0.5039000000       -6.9133200000
   149    23     3       -0.1380000000       -0.6840900000       -1.4219000000       -6.4963200000
   150    24     2       -0.4610000000       -4.4186600000        6.2203600000        6.4089500000
   151    24     3       -0.1380000000       -5.5452600000        3.6868200000        8.0565800000
   152    24     4        0.3190000000       -5.9404600000        3.9881900000        6.8427000000
   153    24     5        0.9110000000       -5.7611600000        5.7479600000        6.7077500000
   154    24     2       -0.4610000000       -6.6504600000        6.2932700000        7.7248800000
   155    24     3       -0.1380000000       -5.0386600000        3.3484500000        6.0088300000
   156    24     6       -0.5880000000       -6.6677600000        6.2271100000        5.3416400000
   157    24     2       -0.4610000000       -4.8037600000        5.9464000000        3.5898800000
   158    24     3       -0.1380000000       -7.1874600000        3.5921000000        6.6202200000
   159    24     5        0.9110000000       -5.8233600000        6.8879000000        3.9829900000
   160    24     2       -0.4610000000       -6.9383600000        7.0436100000        2.9855200000
   161    24     3       -0.1380000000       -4.3199900000        8.7495900000        3.2721500000
   162    24     3       -0.1380000000       -4.2978900000        8.6035000000        5.4337400000
   163    24     4        0.3190000000       -5.0474600000        8.5004500000        4.3288400000
   164    24     3       -0.1380000000       -6.0614600000        9.4265800000        4.4059000000
   165    25     2       -0.4610000000       -6.4510600000       -8.0059500000        0.6591700000
   166    25     3       -0.1380000000       -6.8794600000       -9.5920300000       -1.6880300000
   167    25     4        0.3190000000       -8.0309600000       -9.3096200000       -1.0153500000
   168    25     5        0.9110000000       -7.7388600000       -7.8762800000        0.0760800000
   169    25     2       -0.4610000000       -8.9812600000       -7.5985600000        0.8692100000
   170    25     3       -0.1380000000       -9.0417600000       -9.0966000000       -1.8718600000
   171    25     6       -0.5880000000       -7.4548600000       -6.6298100000       -0.9900000000
   172    25     2       -0.4610000000       -9.8412600000       -6.5185900000       -1.7255700000
   173    25     3       -0.1380000000       -8.3034600000      -10.4487900000       -0.3235800000
   174    25     5        0.9110000000       -8.7649600000       -5.5764600000       -1.4411200000
   175    25     2       -0.4610000000       -8.9828600000       -4.7119000000       -0.2551000000
   176    25     3       -0.1380000000       -7.4335600000       -3.7114000000       -2.8943200000
   177    25     3       -0.1380000000       -9.3575600000       -4.3321000000       -3.6618200000
   178    25     4        0.3190000000       -8.2994600000       -4.8152000000       -3.0166200000
   179    25     3       -0.1380000000       -7.6249600000       -5.6945300000       -3.7719200000
   180    26     2       -0.4610000000        5.3729600000        3.2685800000        5.5591200000
   181    26     3       -0.1380000000        5.3358000000        6.8643600000        4.4708800000
   182    26     4        0.3190000000        4.8198400000        5.6227200000        4.5870200000
   183    26     5        0.9110000000        6.0878400000        4.5120100000        5.2060300000
   184    26     2       -0.4610000000        6.9652400000        5.1482500000        6.2101100000
   185    26     3       -0.1380000000        3.7698400000        5.8064300000        5.3937300000
   186    26     6       -0.5880000000        7.0906400000        4.2330400000        3.8333300000
   187    26     2       -0.4610000000        7.5323400000        1.8243300000        4.5395100000
   188    26     3       -0.1380000000        4.3168400000        5.2276300000        3.4023800000
   189    26     5        0.9110000000        7.3813400000        2.6109700000        3.3124200000
   190    26     2       -0.4610000000        6.2488400000        2.4630400000        2.3435900000
   191    26     3       -0.1380000000        9.9236400000        2.7957500000        3.5497100000
   192    26     3       -0.1380000000        9.0407400000        3.9262300000        1.8756900000
   193    26     4        0.3190000000        9.0103400000        2.7193700000        2.5675800000
   194    26     3       -0.1380000000        9.2959400000        1.7079500000        1.7637800000
   195    27     2       -0.4610000000        6.6009400000        7.3053000000       -8.1582200000
   196    27     3       -0.1380000000        4.4098900000        8.9292800000       -6.6705200000
   197    27     4        0.3190000000        4.0529200000        7.7233700000       -7.2660200000
   198    27     5        0.9110000000        5.4061800000        6.5814300000       -7.6872200000
   199    27     2       -0.4610000000        5.0309200000        5.2951700000       -8.2878200000
   200    27     3       -0.1380000000        3.1622000000        7.0864900000       -6.4584200000
   201    27     6       -0.5880000000        6.0213400000        5.9806100000       -6.1023200000
   202    27     2       -0.4610000000        7.4321400000        4.0825800000       -5.2842200000
   203    27     3       -0.1380000000        3.3545700000        7.9691500000       -8.4086200000
   204    27     5        0.9110000000        7.5979400000        5.2012700000       -6.2532200000
   205    27     2       -0.4610000000        7.7936400000        4.9294200000       -7.6445200000
   206    27     3       -0.1380000000        9.8865400000        5.6761300000       -5.4615200000
   207    27     3       -0.1380000000        8.2220400000        6.7969300000       -4.4541200000
   208    27     4        0.3190000000        8.7367400000        6.3791000000       -5.5918200000
   209    27     3       -0.1380000000        8.9697400000        7.5046000000       -6.3756200000
   210    28     2       -0.4610000000        4.8827200000        0.1635000000        5.0970500000
   211    28     3       -0.1380000000        2.2113900000       -1.0969000000        5.2151500000
   212    28     4        0.3190000000        2.9954800000       -1.6114000000        4.2589600000
   213    28     5        0.9110000000        4.5440800000       -0.6873000000        3.9118100000
   214    28     2       -0.4610000000        4.3194500000       -0.0087000000        2.6487800000
   215    28     3       -0.1380000000        3.2809200000       -2.8312000000        4.6302500000
   216    28     6       -0.5880000000        5.9594400000       -1.6497000000        3.6845900000
   217    28     2       -0.4610000000        6.8397400000       -3.7942000000        2.8350600000
   218    28     3       -0.1380000000        2.2113100000       -1.7874000000        3.1486000000
   219    28     5        0.9110000000        6.0851400000       -2.6264000000        2.3524800000
   220    28     2       -0.4610000000        4.7123100000       -2.8320000000        1.8491700000
   221    28     3       -0.1380000000        8.4168400000       -1.4635000000        1.8904500000
   222    28     3       -0.1380000000        6.7311400000       -0.2749000000        1.3821500000
   223    28     4        0.3190000000        7.1792400000       -1.5172000000        1.3629600000
   224    28     3       -0.1380000000        7.2967400000       -1.9753000000        0.1087000000
   225    29     7       -0.8200000000       -1.8924600000        6.1701600000        4.1390400000
   226    29     8        0.4100000000       -2.8052500000        6.2958300000        4.6647400000
   227    29     8        0.4100000000       -1.6286900000        5.1512900000        4.1814200000
   228    30     7       -0.8200000000       -0.3728200000       -7.2248000000        6.2435400000
   229    30     8        0.4100000000        0.0565400000       -8.0369000000        5.7735900000
   230    30     8        0.4100000000       -1.1830900000       -7.5721000000        6.7392200000
   231    31     7       -0.8200000000       -4.3581500000       -4.6490000000        3.7296500000
   232    31     8        0.4100000000       -4.8143600000       -5.4628000000        4.0878600000
   233    31     8        0.4100000000       -5.0222600000       -3.8532000000        3.8822100000
   234    32     7       -0.8200000000       -4.1396600000       -5.9610600000        8.2126800000
   235    32     8        0.4100000000       -3.5414600000       -6.7754300000        8.1360800000
   236    32     8        0.4100000000       -4.9836600000       -5.9819100000        7.6351800000
   237    33     7       -0.8200000000       -5.6905600000       -4.4282000000        0.5098400000
   238    33     8        0.4100000000       -5.7740600000       -4.4655000000       -0.4605000000
   239    33     8        0.4100000000       -4.9225600000       -3.8063000000        0.6829000000
   240    34     7       -0.8200000000       -2.4052400000        8.1885100000        8.0119800000
   241    34     8        0.4100000000       -3.0165000000        7.4152700000        7.7994800000
   242    34     8        0.4100000000       -1.7615300000        7.9390000000        8.7255800000
   243    35     7       -0.8200000000       -2.3394100000       -4.7296000000        5.7958000000
   244    35     8        0.4100000000       -2.9529100000       -4.5874000000        4.9571900000
   245    35     8        0.4100000000       -2.8136900000       -4.3103000000        6.5842000000
   246    36     7       -0.8200000000        1.5652000000        2.2860800000       -4.3788200000
   247    36     8        0.4100000000        0.8598900000        2.8096700000       -4.8453200000
   248    36     8        0.4100000000        1.4164000000        1.2871000000       -4.4017200000
   249    37     7       -0.8200000000        3.3324000000        1.2561000000        7.2204100000
   250    37     8        0.4100000000        3.1905300000        0.2402000000        7.3741800000
   251    37     8        0.4100000000        3.0667700000        1.4836300000        6.2016600000
   252    38     7       -0.8200000000        7.4427400000       -2.5456000000        5.9547000000
   253    38     8        0.4100000000        6.9020400000       -2.3319000000        5.0940500000
   254    38     8        0.4100000000        7.3813400000       -3.6083000000        6.1126600000
   255    39     7       -0.8200000000        5.5851400000        2.1919500000       -7.8706200000
   256    39     8        0.4100000000        6.5416400000        1.9129600000       -7.5328200000
   257    39     8        0.4100000000        5.7346400000        3.1042500000       -8.1967200000
   258    40     7       -0.8200000000        0.8835000000       -1.7004000000        0.3664400000
   259    40     8        0.4100000000        0.3813000000       -2.4861000000        0.6927400000
   260    40     8        0.4100000000        1.7895100000       -1.9772000000       -0.0420700000
   261    41     7       -0.8200000000       -1.1643100000       -8.2273500000        2.8754700000
   262    41     8        0.4100000000       -1.5761700000       -9.0436400000        3.4446000000
   263    41     8        0.4100000000       -0.1718400000       -8.0616000000        2.9780100000
   264    42     7       -0.8200000000       -1.7485300000       -4.1207000000       -6.6311200000
   265    42     8        0.4100000000       -0.9035400000       -4.3324000000       -6.0806200000
   266    42     8        0.4100000000       -1.7565000000       -3.1902000000       -7.0894200000
   267    43     7       -0.8200000000       -0.0608000000        1.1475000000       -1.7778700000
   268    43     8        0.4100000000       -0.0634700000        0.5031000000       -2.5603000000
   269    43     8        0.4100000000        0.4762700000        1.9606900000       -1.9794500000
   270    44     7       -0.8200000000        0.7701500000       -4.7886000000        3.8129800000
   271    44     8        0.4100000000        1.5990300000       -4.3265000000        4.1916000000
   272    44     8        0.4100000000        0.6570000000       -4.5000000000        2.8115200000
   273    45     7       -0.8200000000       -4.9075600000        5.0913500000       -1.8586100000
   274    45     8        0.4100000000       -5.9185600000        5.1205300000       -1.8237400000
   275    45     8        0.4100000000       -4.7055600000        5.2988100000       -2.8636200000
   276    46     7       -0.8200000000       -3.8780300000       -7.0299900000        0.5187100000
   277    46     8        0.4100000000       -3.8315500000       -6.2686400000       -0.1313900000
   278    46     8        0.4100000000       -4.8015600000       -7.4460600000        0.4117800000
   279    47     7       -0.8200000000        1.5267400000        8.1588600000       -4.1813200000
   280    47     8        0.4100000000        2.3876200000        8.4025500000       -3.6694200000
   281    47     8        0.4100000000        1.1916100000        7.3149800000       -3.7390200000
   282    48     7       -0.8200000000       -2.2627800000       -4.8253000000        1.9482700000
   283    48     8        0.4100000000       -2.8637500000       -5.2086000000        2.6971500000
   284    48     8        0.4100000000       -2.8439500000       -4.0524000000        1.6038200000
   285    49     7       -0.8200000000        4.5242200000        3.3513000000       -5.6955200000
   286    49     8        0.4100000000        5.5332000000        3.5270700000       -5.5148200000