LAMMPS data file
# 14 LI molecules
# 14 TF2 molecules
# 39 wat molecules

8 atom types
5 bond types
8 angle types
6 dihedral types

341 atoms
274 bonds
389 angles
420 dihedrals

    0.0000   16.5843 xlo xhi
    0.0000   16.5843 ylo yhi
    0.0000   16.5843 zlo zhi

Masses

1    6.941  # li LI
2   16.000  # o TF2
3   19.000  # f TF2
4   12.010  # c3 TF2
5   32.060  # sy TF2
6   14.010  # ne TF2
7   16.000  # oh wat
8    1.008  # ho wat

Pair Coeffs

1 0.0182660800896 2.126  # li LI
2 0.209859347635 2.960  # o TF2
3 0.0609584251392 3.118  # f TF2
4 0.10932640151 3.400  # c3 TF2
5 0.249833029536 3.564  # sy TF2
6 0.169885665734 3.250  # ne TF2
7 0.155323242893 3.165  # oh wat
8 0.0 0.000  # ho wat

Bond Coeffs

1 492.669820742  1.466  # harmonic TF2 o sy
2 363.556158739  1.344  # harmonic TF2 c3 f
3 248.732854675  1.782  # harmonic TF2 c3 sy
4 256.928561626  1.752  # harmonic TF2 ne sy
5 529.230180349  1.012  # harmonic wat ho oh

Angle Coeffs

1 41.2525855296  108.48  # harmonic TF2 c3 sy o
2 45.2700110592  121.88  # harmonic TF2 o sy o
3 43.0716472128  107.06  # harmonic TF2 ne sy o
4 81.1647052992  109.67  # harmonic TF2 f c3 sy
5 71.2114987968  107.16  # harmonic TF2 f c3 f
6 39.3938063424  103.12  # harmonic TF2 c3 sy ne
7 109.646127418  119.18  # harmonic TF2 sy ne sy
8 37.924854457  113.24  # harmonic wat ho oh ho

Dihedral Coeffs

1 0.143896516992  3 0 0.0  # charmm TF2 f c3 sy o
2 0.143896516992  3 0 0.0  # charmm TF2 f c3 sy ne
3 0.499666059072  3 180 0.0  # charmm TF2 sy ne sy o
4 6.79544648813  1 180 0.0  # charmm TF2 sy ne sy o
5 0.499666059072  3 180 0.0  # charmm TF2 sy ne sy c3
6 6.79544648813  1 180 0.0  # charmm TF2 sy ne sy c3

Atoms

     1     1     1        0.8000000000        0.0000000000        0.0000000000        0.0000000000
     2     2     1        0.8000000000        8.0175000000       -8.2298600000       -2.6920900000
     3     3     1        0.8000000000        5.5644000000       -5.9436600000       -2.4544400000
     4     4     1        0.8000000000        8.1625200000        6.1759400000        2.5177000000
     5     5     1        0.8000000000        7.7891000000        4.6755200000       -6.3215700000
     6     6     1        0.8000000000       -5.9649800000        7.2242400000        5.7090600000
     7     7     1        0.8000000000        2.2677000000       -0.2030200000        6.4901500000
     8     8     1        0.8000000000       -2.9555000000       -5.7846600000        7.7824000000
     9     9     1        0.8000000000       -0.3773000000       -4.7744600000        3.4313000000
    10    10     1        0.8000000000        0.4199600000       -4.3642600000       -7.0533500000
    11    11     1        0.8000000000       -3.8517700000        2.8610400000       -4.0858000000
    12    12     1        0.8000000000       -1.0826500000       -1.6321200000       -4.4645400000
    13    13     1        0.8000000000        4.7184000000        1.3816900000       -2.5108500000
    14    14     1        0.8000000000        1.0687800000       -1.4189200000        2.9990000000
    15    15     2       -0.4610000000        2.9593000000       -4.2236600000        5.3863100000
    16    15     3       -0.1380000000        5.4226000000       -2.9618700000        7.0093700000
    17    15     4        0.3190000000        4.4620000000       -3.6907200000        7.6140300000
    18    15     5        0.9110000000        2.9118000000       -3.5626800000        6.7136700000
    19    15     2       -0.4610000000        2.3181000000       -2.2615700000        6.8928400000
    20    15     3       -0.1380000000        4.8970000000       -4.9403600000        7.6332100000
    21    15     6       -0.5880000000        1.7894000000       -4.4707600000        7.6488200000
    22    15     2       -0.4610000000       -0.0287500000       -5.9663600000        8.0088300000
    23    15     3       -0.1380000000        4.2360000000       -3.2342300000        8.8877200000
    24    15     5        0.9110000000        0.9378000000       -5.8155600000        6.8927200000
    25    15     2       -0.4610000000        0.5539700000       -5.2352600000        5.6407700000
    26    15     3       -0.1380000000        2.9844000000       -7.3944600000        7.6131100000
    27    15     3       -0.1380000000        2.5438000000       -7.3633600000        5.4585600000
    28    15     4        0.3190000000        1.9569000000       -7.3125600000        6.6774800000
    29    15     3       -0.1380000000        1.2899200000       -8.4601600000        6.8392100000
    30    16     2       -0.4610000000       -0.4406600000       -3.0359700000        8.2418800000
    31    16     3       -0.1380000000       -0.3203100000       -1.8910200000        5.0837300000
    32    16     4        0.3190000000       -1.1758900000       -1.5158900000        6.0326500000
    33    16     5        0.9110000000       -1.4800800000       -2.7734700000        7.2681800000
    34    16     2       -0.4610000000       -2.1976900000       -3.8605400000        6.7070100000
    35    16     3       -0.1380000000       -0.6879300000       -0.3973900000        6.5618300000
    36    16     6       -0.5880000000       -2.5789100000       -2.0525400000        8.3324600000
    37    16     2       -0.4610000000       -4.0572600000       -4.2219500000        8.7334200000
    38    16     3       -0.1380000000       -2.3348600000       -1.2383200000        5.4465900000
    39    16     5        0.9110000000       -4.1785700000       -2.7148500000        8.7284500000
    40    16     2       -0.4610000000       -4.1567700000       -2.0922800000       10.0043400000
    41    16     3       -0.1380000000       -5.0258400000       -2.2637100000        6.3147800000
    42    16     3       -0.1380000000       -5.4845200000       -0.6936600000        7.7251200000
    43    16     4        0.3190000000       -5.3971900000       -2.0090000000        7.5842200000
    44    16     3       -0.1380000000       -6.6563900000       -2.4942300000        7.6571500000
    45    17     2       -0.4610000000       -2.5963200000        3.7764000000       -6.6929800000
    46    17     3       -0.1380000000        0.2322000000        4.8681100000       -7.8525300000
    47    17     4        0.3190000000       -0.6783700000        4.2386700000       -8.5905600000
    48    17     5        0.9110000000       -1.6589400000        3.0457500000       -7.6013700000
    49    17     2       -0.4610000000       -0.8495700000        1.9393600000       -7.1143500000
    50    17     3       -0.1380000000       -1.3666000000        5.2811400000       -9.1840200000
    51    17     6       -0.5880000000       -2.6433800000        2.1219700000       -8.6471300000
    52    17     2       -0.4610000000       -5.1276200000        2.5538900000       -8.3328600000
    53    17     3       -0.1380000000        0.0190300000        3.6464000000       -9.6019500000
    54    17     5        0.9110000000       -4.0796700000        2.8390400000       -9.2785500000
    55    17     2       -0.4610000000       -3.8379400000        4.2405400000       -9.3946100000
    56    17     3       -0.1380000000       -4.2761300000        0.8371100000      -10.8509800000
    57    17     3       -0.1380000000       -3.4329900000        2.6121900000      -11.7439000000
    58    17     4        0.3190000000       -4.3580800000        2.1819500000      -10.9334300000
    59    17     3       -0.1380000000       -5.5301300000        2.5813000000      -11.5605300000
    60    18     2       -0.4610000000       -1.4661300000       -1.6292200000        0.2442000000
    61    18     3       -0.1380000000       -4.3377900000       -4.1610700000        1.2087000000
    62    18     4        0.3190000000       -3.2973100000       -3.7824300000        0.4228000000
    63    18     5        0.9110000000       -2.1668900000       -2.5017800000        1.2460000000
    64    18     2       -0.4610000000       -1.3099700000       -3.1609200000        2.2784000000
    65    18     3       -0.1380000000       -2.5561800000       -4.9241600000        0.1636000000
    66    18     6       -0.5880000000       -3.1470600000       -1.5226500000        2.2151000000
    67    18     2       -0.4610000000       -3.3000400000        0.7509900000        2.1332000000
    68    18     3       -0.1380000000       -3.7248000000       -3.3910200000       -0.7600000000
    69    18     5        0.9110000000       -4.0652900000       -0.3044500000        1.4791000000
    70    18     2       -0.4610000000       -3.9559000000       -0.5362100000        0.0234000000
    71    18     3       -0.1380000000       -5.6245800000       -0.6258000000        3.5849000000
    72    18     3       -0.1380000000       -6.3130300000       -1.6365100000        1.7827000000
    73    18     4        0.3190000000       -5.7428900000       -0.5230200000        2.2359000000
    74    18     3       -0.1380000000       -6.5497900000        0.5390800000        1.9266000000
    75    19     2       -0.4610000000       -0.6022400000        4.5342400000       -0.2485000000
    76    19     3       -0.1380000000       -0.4463000000        7.5416400000       -0.3541000000
    77    19     4        0.3190000000       -0.7519200000        6.8856400000       -1.4733000000
    78    19     5        0.9110000000       -1.4671000000        5.2670900000       -1.2087000000
    79    19     2       -0.4610000000       -1.9417200000        4.5646900000       -2.3764900000
    80    19     3       -0.1380000000       -1.5608900000        7.6740400000       -2.2172200000
    81    19     6       -0.5880000000       -3.0680500000        5.3515400000       -0.4933000000
    82    19     2       -0.4610000000       -2.3868100000        3.9010400000        1.5956000000
    83    19     3       -0.1380000000        0.4131600000        6.8451400000       -2.1175100000
    84    19     5        0.9110000000       -3.5116300000        4.6939600000        1.0679000000
    85    19     2       -0.4610000000       -3.9657700000        5.8968400000        1.7510000000
    86    19     3       -0.1380000000       -4.9062000000        2.6698400000        0.0393000000
    87    19     3       -0.1380000000       -6.0495100000        4.3187500000        0.7824000000
    88    19     4        0.3190000000       -4.9203300000        3.6038600000        0.9854000000
    89    19     3       -0.1380000000       -5.1186500000        2.9788200000        2.1511000000
    90    20     2       -0.4610000000        7.6138000000        6.8756400000       -6.1864800000
    91    20     3       -0.1380000000        4.3145000000        7.7043400000       -6.5074700000
    92    20     4        0.3190000000        5.3306000000        8.5615400000       -6.5242400000
    93    20     5        0.9110000000        6.8112000000        7.9741400000       -5.6148100000
    94    20     2       -0.4610000000        6.6733000000        7.7615400000       -4.1622600000
    95    20     3       -0.1380000000        5.6495000000        8.8461400000       -7.8132900000
    96    20     6       -0.5880000000        7.8281000000        9.3923400000       -5.5211500000
    97    20     2       -0.4610000000       10.2877900000        9.4285400000       -5.5726500000
    98    20     3       -0.1380000000        4.8768000000        9.7487400000       -6.0159100000
    99    20     5        0.9110000000        9.2260700000        9.5198400000       -6.5890300000
   100    20     2       -0.4610000000        8.9894600000        8.5283400000       -7.6436400000
   101    20     3       -0.1380000000        8.8851800000       12.1328400000       -6.4172900000
   102    20     3       -0.1380000000        7.4608000000       11.0083400000       -7.6314500000
   103    20     4        0.3190000000        8.7810800000       11.1280400000       -7.2997600000
   104    20     3       -0.1380000000        9.5329100000       11.3169400000       -8.3857500000
   105    21     2       -0.4610000000        5.2391000000       -4.8330600000        1.4605000000
   106    21     3       -0.1380000000        5.7549000000       -4.6923600000        4.3674000000
   107    21     4        0.3190000000        5.6186000000       -5.8564600000        3.8270000000
   108    21     5        0.9110000000        4.5949000000       -5.8345600000        2.2823000000
   109    21     2       -0.4610000000        3.1446000000       -5.6652600000        2.5783000000
   110    21     3       -0.1380000000        6.8922000000       -6.2611600000        3.6695000000
   111    21     6       -0.5880000000        4.9623000000       -7.2609600000        1.3851000000
   112    21     2       -0.4610000000        2.7651000000       -6.8758600000        0.0978000000
   113    21     3       -0.1380000000        5.0637000000       -6.7144600000        4.6823000000
   114    21     5        0.9110000000        3.5705000000       -8.0188600000        0.5976000000
   115    21     2       -0.4610000000        4.2756000000       -8.9153600000       -0.2792000000
   116    21     3       -0.1380000000        2.0526000000       -8.3728600000        2.7091000000
   117    21     3       -0.1380000000        3.6874000000       -9.7551600000        2.4695000000
   118    21     4        0.3190000000        2.7269000000       -9.0656600000        1.8219000000
   119    21     3       -0.1380000000        1.8693000000       -9.9093600000        1.2426000000
   120    22     2       -0.4610000000       -8.0371200000        6.6033400000       -1.7368100000
   121    22     3       -0.1380000000       -6.5910400000        3.6841500000       -2.3948100000
   122    22     4        0.3190000000       -7.8089600000        4.0099900000       -2.9079800000
   123    22     5        0.9110000000       -8.6278000000        5.2322600000       -1.7732600000
   124    22     2       -0.4610000000       -8.8564000000        4.6134300000       -0.4606000000
   125    22     3       -0.1380000000       -7.7242600000        4.4960600000       -4.1367400000
   126    22     6       -0.5880000000      -10.2518000000        5.6584800000       -2.0600500000
   127    22     2       -0.4610000000      -10.4854000000        4.6595700000       -4.3675600000
   128    22     3       -0.1380000000       -8.4732000000        2.8846900000       -3.0051300000
   129    22     5        0.9110000000      -11.2209000000        4.6263800000       -3.0705000000
   130    22     2       -0.4610000000      -11.1529000000        3.3818900000       -2.3234100000
   131    22     3       -0.1380000000      -12.9919000000        6.6247400000       -3.3428600000
   132    22     3       -0.1380000000      -13.7193000000        4.7656000000       -2.3776100000
   133    22     4        0.3190000000      -12.9360000000        5.2429900000       -3.3356900000
   134    22     3       -0.1380000000      -13.4227000000        4.7855700000       -4.5171300000
   135    23     2       -0.4610000000       -1.9819200000       -5.9134600000        4.1336000000
   136    23     3       -0.1380000000       -0.6025600000       -8.6832600000        4.5162000000
   137    23     4        0.3190000000       -1.8849800000       -8.5763600000        4.1874000000
   138    23     5        0.9110000000       -2.5991300000       -7.0382600000        4.8253000000
   139    23     2       -0.4610000000       -2.6179400000       -7.1896600000        6.2675300000
   140    23     3       -0.1380000000       -1.9835500000       -8.6340600000        2.8150000000
   141    23     6       -0.5880000000       -4.2585700000       -6.8457600000        4.2571000000
   142    23     2       -0.4610000000       -6.1547400000       -7.2671600000        5.5544500000
   143    23     3       -0.1380000000       -2.5351200000       -9.6837600000        4.5762000000
   144    23     5        0.9110000000       -5.3594100000       -6.0402600000        5.2310600000
   145    23     2       -0.4610000000       -4.5739000000       -5.3510600000        6.2781800000
   146    23     3       -0.1380000000       -7.1691500000       -4.2180800000        5.1652900000
   147    23     3       -0.1380000000       -6.8966300000       -5.1749600000        3.2004000000
   148    23     4        0.3190000000       -6.2554400000       -4.7540600000        4.3141000000
   149    23     3       -0.1380000000       -5.4437500000       -3.7931300000        3.8225000000
   150    24     2       -0.4610000000        6.1183000000       -0.1397500000       -2.0642700000
   151    24     3       -0.1380000000        9.1857600000       -1.7289500000       -0.9365000000
   152    24     4        0.3190000000        8.6987900000       -0.5507800000       -1.4400000000
   153    24     5        0.9110000000        7.3093000000       -0.7745800000       -2.5310400000
   154    24     2       -0.4610000000        7.2840000000       -2.2248300000       -2.7322200000
   155    24     3       -0.1380000000        8.2131100000        0.1757700000       -0.4223000000
   156    24     6       -0.5880000000        7.5882000000        0.0999000000       -4.0192600000
   157    24     2       -0.4610000000        9.3049900000        0.2292700000       -5.7784400000
   158    24     3       -0.1380000000        9.7406200000        0.1388200000       -2.0395300000
   159    24     5        0.9110000000        8.4000500000       -0.7693200000       -5.3458800000
   160    24     2       -0.4610000000        9.0971400000       -1.9422900000       -4.7757400000
   161    24     3       -0.1380000000        6.4834000000       -2.3767100000       -5.9420400000
   162    24     3       -0.1380000000        7.7942000000       -1.9347300000       -7.6421900000
   163    24     4        0.3190000000        7.1419000000       -1.3953800000       -6.5650600000
   164    24     3       -0.1380000000        6.2082000000       -0.3731200000       -6.8034700000
   165    25     2       -0.4610000000       -7.9547100000        3.4699500000        5.8734800000
   166    25     3       -0.1380000000       -7.7190200000        0.0029200000        6.4969100000
   167    25     4        0.3190000000       -8.5636000000        0.7445100000        5.7888400000
   168    25     5        0.9110000000       -8.7281000000        2.3692200000        6.4820000000
   169    25     2       -0.4610000000       -8.7050000000        2.3588600000        7.9204900000
   170    25     3       -0.1380000000       -8.2137400000        0.7194100000        4.5086000000
   171    25     6       -0.5880000000      -10.3104000000        2.9764700000        5.8966200000
   172    25     2       -0.4610000000      -11.9730000000        3.2646800000        7.7925400000
   173    25     3       -0.1380000000       -9.7699000000        0.1273300000        5.8649200000
   174    25     5        0.9110000000      -11.1905000000        4.1104000000        6.9125700000
   175    25     2       -0.4610000000      -10.1903000000        5.1071700000        7.4718200000
   176    25     3       -0.1380000000      -11.5882000000        5.5143300000        4.6691000000
   177    25     3       -0.1380000000      -12.7893000000        6.1059400000        6.4756400000
   178    25     4        0.3190000000      -12.2538000000        5.0752700000        5.7855400000
   179    25     3       -0.1380000000      -13.2523000000        4.3101100000        5.3787100000
   180    26     2       -0.4610000000        0.6541200000       -0.2011600000       -1.8271900000
   181    26     3       -0.1380000000       -0.1990300000        1.4837000000       -4.4163700000
   182    26     4        0.3190000000        0.9899600000        1.6601900000       -3.7930000000
   183    26     5        0.9110000000        1.4817600000        0.1632100000       -2.9295200000
   184    26     2       -0.4610000000        2.9128000000        0.2949600000       -2.6614000000
   185    26     3       -0.1380000000        1.9027000000        2.0838600000       -4.6077100000
   186    26     6       -0.5880000000        1.0661400000       -1.1084300000       -4.0653800000
   187    26     2       -0.4610000000        1.5567000000       -2.6518500000       -5.9104900000
   188    26     3       -0.1380000000        0.7107300000        2.5977200000       -2.8644800000
   189    26     5        0.9110000000        2.3144000000       -1.9316800000       -4.8577900000
   190    26     2       -0.4610000000        3.2246000000       -0.8685800000       -5.1738200000
   191    26     3       -0.1380000000        3.4537000000       -2.3678700000       -2.4429700000
   192    26     3       -0.1380000000        4.1936000000       -3.5991000000       -3.9593300000
   193    26     4        0.3190000000        3.1075000000       -3.0137400000       -3.5665600000
   194    26     3       -0.1380000000        2.2740000000       -3.9292700000       -3.0958700000
   195    27     2       -0.4610000000        4.0950000000        1.6790000000       -0.5938000000
   196    27     3       -0.1380000000        5.3968000000        3.6403100000        0.9484000000
   197    27     4        0.3190000000        4.1769000000        3.3706100000        1.4586000000
   198    27     5        0.9110000000        3.5651000000        1.7959200000        0.7726000000
   199    27     2       -0.4610000000        2.1214000000        1.7010000000        0.9174000000
   200    27     3       -0.1380000000        4.1328000000        3.4399300000        2.8057000000
   201    27     6       -0.5880000000        4.0434000000        0.3303200000        1.6177000000
   202    27     2       -0.4610000000        6.3074000000        1.3809600000        2.0257000000
   203    27     3       -0.1380000000        3.4799000000        4.4387400000        1.0218000000
   204    27     5        0.9110000000        5.5326000000        0.2428500000        2.4663000000
   205    27     2       -0.4610000000        4.8963000000        0.2301400000        3.7928000000
   206    27     3       -0.1380000000        6.4078000000       -1.6103800000        0.7311000000
   207    27     3       -0.1380000000        5.3271000000       -2.3283300000        2.4501000000
   208    27     4        0.3190000000        6.1756000000       -1.4020900000        1.9914000000
   209    27     3       -0.1380000000        7.3398000000       -1.5906600000        2.5203000000
   210    28     2       -0.4610000000       -1.4655500000       -3.7090000000       -3.9606800000
   211    28     3       -0.1380000000       -3.7274900000       -5.5315600000       -2.9631600000
   212    28     4        0.3190000000       -3.4269100000       -5.5885600000       -4.2263600000
   213    28     5        0.9110000000       -1.7664100000       -5.0115600000       -4.5649700000
   214    28     2       -0.4610000000       -1.5070800000       -4.9684600000       -6.0134900000
   215    28     3       -0.1380000000       -3.5113500000       -6.9008600000       -4.5573800000
   216    28     6       -0.5880000000       -0.6427700000       -6.1148600000       -3.8012700000
   217    28     2       -0.4610000000        1.1459300000       -5.8473600000       -5.5598700000
   218    28     3       -0.1380000000       -4.3726400000       -4.9458600000       -4.8916700000
   219    28     5        0.9110000000        0.6546600000       -6.8734600000       -4.6633100000
   220    28     2       -0.4610000000        1.4801400000       -7.2785600000       -3.4943700000
   221    28     3       -0.1380000000        0.3772600000       -9.4715600000       -4.9308700000
   222    28     3       -0.1380000000        0.8168300000       -8.3770600000       -6.8214700000
   223    28     4        0.3190000000        0.1297900000       -8.3667600000       -5.6134200000
   224    28     3       -0.1380000000       -1.1497100000       -8.4110600000       -5.8846500000
   225    29     7       -0.8200000000        4.1734000000       -7.3117600000       -3.2632500000
   226    29     8        0.4100000000        3.1930000000       -7.4663600000       -3.2410000000
   227    29     8        0.4100000000        4.5974000000       -8.1925600000       -3.5847000000
   228    30     7       -0.8200000000       -7.1125900000       -6.8862600000       -2.5721900000
   229    30     8        0.4100000000       -7.1806300000       -6.2209600000       -3.3370600000
   230    30     8        0.4100000000       -6.8676300000       -6.3315600000       -1.7543200000
   231    31     7       -0.8200000000        6.4600000000        6.6252400000        1.3076000000
   232    31     8        0.4100000000        5.8862000000        7.4696400000        1.5151000000
   233    31     8        0.4100000000        5.9841000000        6.0215400000        0.6587000000
   234    32     7       -0.8200000000        4.1400000000        0.6642600000        6.4693500000
   235    32     8        0.4100000000        4.4977000000        1.5333700000        6.8051300000
   236    32     8        0.4100000000        4.8004000000        0.4566600000        5.7576000000
   237    33     7       -0.8200000000       -4.5263900000       -2.1019100000       -3.8137700000
   238    33     8        0.4100000000       -5.4644400000       -2.3185200000       -3.5843600000
   239    33     8        0.4100000000       -4.4410700000       -1.8263200000       -4.8775700000
   240    34     7       -0.8200000000       -4.8529800000        1.8733100000       -5.6678500000
   241    34     8        0.4100000000       -5.7583200000        1.4140200000       -5.5442900000
   242    34     8        0.4100000000       -4.5898200000        1.7766000000       -6.6097700000
   243    35     7       -0.8200000000       -4.1280300000       -7.2105600000       -7.5964400000
   244    35     8        0.4100000000       -4.5592900000       -7.8782600000       -8.1725200000
   245    35     8        0.4100000000       -4.1814100000       -7.5506600000       -6.6134600000
   246    36     7       -0.8200000000       -0.3914500000       -0.0822900000        2.8845000000
   247    36     8        0.4100000000       -1.3661700000       -0.1910300000        2.8557000000
   248    36     8        0.4100000000       -0.1566900000        0.9280000000        2.9696000000
   249    37     7       -0.8200000000        8.0500000000        4.1064600000        3.1142000000
   250    37     8        0.4100000000        7.2970000000        3.5592800000        2.6061000000
   251    37     8        0.4100000000        8.0590000000        3.8406200000        4.0876000000
   252    38     7       -0.8200000000       -1.0623500000        1.8097200000        0.2448000000
   253    38     8        0.4100000000       -0.8919500000        2.6156000000       -0.3845000000
   254    38     8        0.4100000000       -1.7858900000        2.1216400000        0.8733000000
   255    39     7       -0.8200000000       -5.2368400000        5.9912400000       -6.5715100000
   256    39     8        0.4100000000       -4.3497100000        5.4989100000       -6.4702300000
   257    39     8        0.4100000000       -5.6393400000        6.2132400000       -5.6603900000
   258    40     7       -0.8200000000       -4.6325100000       -7.3126600000        0.6069000000
   259    40     8        0.4100000000       -4.2957700000       -6.5956600000       -0.0043000000
   260    40     8        0.4100000000       -4.3219300000       -7.1054600000        1.5751000000
   261    41     7       -0.8200000000       -7.9180200000        6.9590400000        6.6314500000
   262    41     8        0.4100000000       -7.7910700000        7.4631400000        7.5274100000
   263    41     8        0.4100000000       -8.2885300000        6.1360400000        7.0559900000
   264    42     7       -0.8200000000        2.4136000000       -0.4229900000        4.2637000000
   265    42     8        0.4100000000        3.3898000000       -0.3219800000        3.9756000000
   266    42     8        0.4100000000        2.1366000000        0.6113600000        4.4150000000
   267    43     7       -0.8200000000       -3.8856100000        4.8956900000       -4.1483200000
   268    43     8        0.4100000000       -4.4315600000        5.7596400000       -4.2634400000
   269    43     8        0.4100000000       -3.0364400000        5.0835600000       -3.5449300000
   270    44     7       -0.8200000000       -1.4867700000       -0.6924300000       -6.2357000000
   271    44     8        0.4100000000       -2.0374300000       -0.9817000000       -7.0566700000
   272    44     8        0.4100000000       -1.1974600000        0.2873500000       -6.4723200000
   273    45     7       -0.8200000000       -8.1356700000       -6.8250600000        0.5472000000
   274    45     8        0.4100000000       -7.5768900000       -7.5942600000        0.9167000000
   275    45     8        0.4100000000       -8.2816000000       -6.1191600000        1.2117000000
   276    46     7       -0.8200000000        7.0471000000       -5.1467600000       -3.6278600000
   277    46     8        0.4100000000        7.3681000000       -5.5564600000       -4.5216400000
   278    46     8        0.4100000000        7.1271000000       -4.1499700000       -3.6102000000
   279    47     7       -0.8200000000        1.5957000000       -3.4063000000        3.1837000000
   280    47     8        0.4100000000        2.0564000000       -3.7018900000        4.0176000000
   281    47     8        0.4100000000        1.8733000000       -3.9779300000        2.3636000000
   282    48     7       -0.8200000000        4.8324000000        1.2945700000       -4.5962000000
   283    48     8        0.4100000000        5.1603000000        2.0232700000       -5.2549400000
   284    48     8        0.4100000000        4.6152000000        0.3179200000       -4.8956000000
   285    49     7       -0.8200000000        1.8254000000       -3.6610500000        0.2067000000
   286    49     8        0.4100000000        1.1116400000       -4.1559200000       -0.3512000000