LAMMPS data file
# 14 LI molecules
# 14 TF2 molecules
# 39 wat molecules

8 atom types
5 bond types
8 angle types
6 dihedral types

341 atoms
274 bonds
389 angles
420 dihedrals

    0.0000   16.5843 xlo xhi
    0.0000   16.5843 ylo yhi
    0.0000   16.5843 zlo zhi

Masses

1    6.941  # li LI
2   16.000  # o TF2
3   19.000  # f TF2
4   12.010  # c3 TF2
5   32.060  # sy TF2
6   14.010  # ne TF2
7   16.000  # oh wat
8    1.008  # ho wat

Pair Coeffs

1 0.0182660800896 2.126  # li LI
2 0.209859347635 2.960  # o TF2
3 0.0609584251392 3.118  # f TF2
4 0.10932640151 3.400  # c3 TF2
5 0.249833029536 3.564  # sy TF2
6 0.169885665734 3.250  # ne TF2
7 0.155323242893 3.165  # oh wat
8 0.0 0.000  # ho wat

Bond Coeffs

1 492.669820742  1.466  # harmonic TF2 o sy
2 363.556158739  1.344  # harmonic TF2 c3 f
3 248.732854675  1.782  # harmonic TF2 c3 sy
4 256.928561626  1.752  # harmonic TF2 ne sy
5 529.230180349  1.012  # harmonic wat ho oh

Angle Coeffs

1 41.2525855296  108.48  # harmonic TF2 c3 sy o
2 45.2700110592  121.88  # harmonic TF2 o sy o
3 43.0716472128  107.06  # harmonic TF2 ne sy o
4 81.1647052992  109.67  # harmonic TF2 f c3 sy
5 71.2114987968  107.16  # harmonic TF2 f c3 f
6 39.3938063424  103.12  # harmonic TF2 c3 sy ne
7 109.646127418  119.18  # harmonic TF2 sy ne sy
8 37.924854457  113.24  # harmonic wat ho oh ho

Dihedral Coeffs

1 0.143896516992  3 0 0.0  # charmm TF2 f c3 sy o
2 0.143896516992  3 0 0.0  # charmm TF2 f c3 sy ne
3 0.499666059072  3 180 0.0  # charmm TF2 sy ne sy o
4 6.79544648813  1 180 0.0  # charmm TF2 sy ne sy o
5 0.499666059072  3 180 0.0  # charmm TF2 sy ne sy c3
6 6.79544648813  1 180 0.0  # charmm TF2 sy ne sy c3

Atoms

     1     1     1        0.8000000000        0.0000000000        0.0000000000        0.0000000000
     2     2     1        0.8000000000       -7.6015600000       -3.4108700000        8.0833700000
     3     3     1        0.8000000000        6.0873400000       -1.3157700000        8.0841700000
     4     4     1        0.8000000000       -6.3649600000        4.4253300000       -5.4321300000
     5     5     1        0.8000000000       -3.0346000000        4.6867700000        0.6768500000
     6     6     1        0.8000000000       -2.2862700000       -7.5962300000       -3.0486300000
     7     7     1        0.8000000000       -4.8825000000        0.9854800000        5.5008600000
     8     8     1        0.8000000000       -0.7898100000        6.5703700000       -0.8493800000
     9     9     1        0.8000000000        6.0945400000        7.8392700000       -6.4505300000
    10    10     1        0.8000000000        5.6022400000       -5.8712300000        1.5767600000
    11    11     1        0.8000000000        1.6479000000       -4.6886500000       -2.5752300000
    12    12     1        0.8000000000        0.4401700000        4.9023700000       -5.9863300000
    13    13     1        0.8000000000        1.4372900000        4.7580700000        4.1574600000
    14    14     1        0.8000000000        4.7583400000       -1.1083100000       -0.0468800000
    15    15     2       -0.4610000000        5.2383400000       -2.8273800000       -1.4841100000
    16    15     3       -0.1380000000        6.4873400000       -5.7563300000       -3.5661300000
    17    15     4        0.3190000000        6.6198400000       -4.5136400000       -3.0653300000
    18    15     5        0.9110000000        5.4950400000       -4.2955900000       -1.6405400000
    19    15     2       -0.4610000000        5.8458400000       -5.1136100000       -0.5360200000
    20    15     3       -0.1380000000        7.9129400000       -4.3153300000       -2.7390300000
    21    15     6       -0.5880000000        3.9147500000       -4.9683000000       -2.0133800000
    22    15     2       -0.4610000000        3.4665100000       -5.8173300000        0.3407100000
    23    15     3       -0.1380000000        6.3456400000       -3.7374700000       -4.0815300000
    24    15     5        0.9110000000        3.3071500000       -6.3122300000       -1.0314300000
    25    15     2       -0.4610000000        1.9331100000       -6.4236300000       -1.5886600000
    26    15     3       -0.1380000000        5.3993400000       -7.9098300000       -0.8442500000
    27    15     3       -0.1380000000        4.5035500000       -7.8206300000       -2.8091300000
    28    15     4        0.3190000000        4.2465000000       -7.8004300000       -1.4694200000
    29    15     3       -0.1380000000        3.5750400000       -8.9517300000       -1.1836800000
    30    16     2       -0.4610000000       -0.3763900000       -6.1060300000        0.8201200000
    31    16     3       -0.1380000000       -0.9765700000       -2.5316900000        2.4061500000
    32    16     4        0.3190000000       -0.9303000000       -3.9254100000        2.3869800000
    33    16     5        0.9110000000       -0.2349800000       -4.6285700000        0.8956100000
    34    16     2       -0.4610000000        0.9324500000       -3.9824600000        0.3579000000
    35    16     3       -0.1380000000       -0.1429200000       -4.2768100000        3.4304600000
    36    16     6       -0.5880000000       -1.4454500000       -4.1224600000       -0.3798400000
    37    16     2       -0.4610000000       -2.7072400000       -5.4747400000       -1.9016700000
    38    16     3       -0.1380000000       -2.2098700000       -4.2664700000        2.5913100000
    39    16     5        0.9110000000       -2.8805800000       -4.9919100000       -0.5818200000
    40    16     2       -0.4610000000       -3.0811000000       -5.9603300000        0.5170500000
    41    16     3       -0.1380000000       -3.7976800000       -2.6785100000       -1.3476100000
    42    16     3       -0.1380000000       -4.1455500000       -3.1673300000        0.7904800000
    43    16     4        0.3190000000       -4.1168000000       -3.6177100000       -0.4452600000
    44    16     3       -0.1380000000       -5.3203400000       -3.9985600000       -0.7676200000
    45    17     2       -0.4610000000        2.5009900000        2.9525700000        2.5976900000
    46    17     3       -0.1380000000        4.0615100000        3.8041400000       -0.1234000000
    47    17     4        0.3190000000        2.7572100000        3.5365500000       -0.1410100000
    48    17     5        0.9110000000        2.3212700000        2.3805200000        1.2279700000
    49    17     2       -0.4610000000        2.9412600000        1.0765800000        1.0101600000
    50    17     3       -0.1380000000        2.0538500000        4.6600700000       -0.1187800000
    51    17     6       -0.5880000000        0.6477900000        1.9624600000        1.1526600000
    52    17     2       -0.4610000000        0.0024400000        4.0234300000        2.8319400000
    53    17     3       -0.1380000000        2.5243300000        2.9271900000       -1.3687400000
    54    17     5        0.9110000000       -0.4028300000        2.7187700000        2.2463000000
    55    17     2       -0.4610000000       -1.4526200000        2.8112500000        1.2274300000
    56    17     3       -0.1380000000       -1.6833300000        0.4676000000        2.8395400000
    57    17     3       -0.1380000000       -1.7298500000        2.0735500000        4.3297200000
    58    17     4        0.3190000000       -0.9298000000        1.4734200000        3.4107800000
    59    17     3       -0.1380000000        0.1523900000        0.8965500000        4.0656200000
    60    18     2       -0.4610000000        2.2267300000       -4.9102600000       -4.6220300000
    61    18     3       -0.1380000000        0.2813100000       -4.8374000000       -7.3349300000
    62    18     4        0.3190000000        0.8369000000       -3.7494000000       -6.7673300000
    63    18     5        0.9110000000        2.4549000000       -4.1836500000       -5.8901300000
    64    18     2       -0.4610000000        3.4004400000       -3.0783600000       -5.9478300000
    65    18     3       -0.1380000000        0.9482600000       -2.7721100000       -7.6734300000
    66    18     6       -0.5880000000        3.2968500000       -5.3643200000       -6.8248300000
    67    18     2       -0.4610000000        3.9543200000       -7.5979300000       -6.4502300000
    68    18     3       -0.1380000000       -0.0432600000       -3.3724800000       -5.8465300000
    69    18     5        0.9110000000        2.7080400000       -7.0667300000       -7.0486300000
    70    18     2       -0.4610000000        1.4870500000       -7.1828300000       -6.2579300000
    71    18     3       -0.1380000000        1.4678400000       -6.6435300000       -9.1538300000
    72    18     3       -0.1380000000        1.9685800000       -8.7672300000       -8.9648100000
    73    18     4        0.3190000000        2.4204500000       -7.4805300000       -8.7799300000
    74    18     3       -0.1380000000        3.5017400000       -7.2053300000       -9.5493300000
    75    19     2       -0.4610000000        3.0379300000       -0.8959400000       -1.4617400000
    76    19     3       -0.1380000000        2.3606900000        0.0318000000       -5.1403300000
    77    19     4        0.3190000000        3.0029500000        0.1163600000       -3.9774300000
    78    19     5        0.9110000000        2.2402400000       -0.8887300000       -2.6761300000
    79    19     2       -0.4610000000        1.7495000000       -2.0897300000       -3.3547300000
    80    19     3       -0.1380000000        4.2509300000       -0.2229800000       -4.2246300000
    81    19     6       -0.5880000000        0.7099000000       -0.1770400000       -2.1696300000
    82    19     2       -0.4610000000       -0.5524900000        1.5737200000       -1.6847600000
    83    19     3       -0.1380000000        3.1181600000        1.4243000000       -3.5547300000
    84    19     5        0.9110000000       -0.0908700000        1.0793800000       -2.9790300000
    85    19     2       -0.4610000000        0.6760500000        1.9549400000       -3.8119300000
    86    19     3       -0.1380000000       -2.1948200000        1.1466000000       -4.6020300000
    87    19     3       -0.1380000000       -1.9791400000       -0.6903300000       -3.3630300000
    88    19     4        0.3190000000       -1.3042800000        0.2669000000       -4.0716300000
    89    19     3       -0.1380000000       -0.7014100000       -0.2778400000       -5.1173300000
    90    20     2       -0.4610000000       -5.2973300000       -8.1737300000        4.6947300000
    91    20     3       -0.1380000000       -7.5471600000       -6.7381300000        2.8747700000
    92    20     4        0.3190000000       -7.7642600000       -7.9198300000        3.4298400000
    93    20     5        0.9110000000       -6.7232600000       -8.2406300000        4.8749100000
    94    20     2       -0.4610000000       -7.1028600000       -9.4045300000        5.6695400000
    95    20     3       -0.1380000000       -9.0559600000       -7.8742300000        3.7572500000
    96    20     6       -0.5880000000       -7.0558600000       -6.7915300000        5.8220700000
    97    20     2       -0.4610000000       -6.6477600000       -4.4132100000        6.5215700000
    98    20     3       -0.1380000000       -7.7854600000       -8.9226300000        2.6070600000
    99    20     5        0.9110000000       -5.8166600000       -5.6177300000        6.3119700000
   100    20     2       -0.4610000000       -5.1836000000       -6.3452300000        7.4086900000
   101    20     3       -0.1380000000       -3.6001600000       -6.2401300000        5.0211900000
   102    20     3       -0.1380000000       -3.9207300000       -4.2045200000        5.2483800000
   103    20     4        0.3190000000       -4.5635000000       -5.3398600000        4.9961800000
   104    20     3       -0.1380000000       -5.0907000000       -5.2229300000        3.7734600000
   105    21     2       -0.4610000000       -5.8998600000        7.7493700000       -3.1255300000
   106    21     3       -0.1380000000       -8.1949600000        8.9086700000       -0.4122000000
   107    21     4        0.3190000000       -7.1274600000        8.8765700000       -1.1586500000
   108    21     5        0.9110000000       -7.1962600000        7.6248700000       -2.4563300000
   109    21     2       -0.4610000000       -8.4441600000        7.4193700000       -3.2114300000
   110    21     3       -0.1380000000       -6.9588600000       10.1243700000       -1.6859500000
   111    21     6       -0.5880000000       -6.9109600000        6.1545700000       -1.4947500000
   112    21     2       -0.4610000000       -7.4919600000        4.7195700000       -3.5758300000
   113    21     3       -0.1380000000       -6.0562600000        8.6250700000       -0.3704400000
   114    21     5        0.9110000000       -7.3359600000        4.5716700000       -2.1338700000
   115    21     2       -0.4610000000       -6.1897600000        3.8056000000       -1.5925200000
   116    21     3       -0.1380000000       -9.8929600000        5.2924700000       -1.7221300000
   117    21     3       -0.1380000000       -8.9997600000        4.2017900000       -0.0938400000
   118    21     4        0.3190000000       -9.0681600000        4.2927000000       -1.4671800000
   119    21     3       -0.1380000000       -9.6647600000        3.1383000000       -1.8553700000
   120    22     2       -0.4610000000        7.1383400000        2.3967900000        6.6631000000
   121    22     3       -0.1380000000        4.7673400000        1.2351600000        3.9331500000
   122    22     4        0.3190000000        5.8059400000        1.9541500000        4.4628800000
   123    22     5        0.9110000000        6.1427400000        1.4610800000        6.1755000000
   124    22     2       -0.4610000000        6.4790400000        0.0651400000        6.5053500000
   125    22     3       -0.1380000000        6.8936400000        1.6473000000        3.7127100000
   126    22     6       -0.5880000000        4.7357400000        2.0185200000        7.1287200000
   127    22     2       -0.4610000000        4.2893600000       -0.1388500000        8.2310700000
   128    22     3       -0.1380000000        5.5681400000        3.2881500000        4.3312400000
   129    22     5        0.9110000000        3.5660600000        1.0355700000        7.8139700000
   130    22     2       -0.4610000000        2.9275500000        1.9066800000        8.7898700000
   131    22     3       -0.1380000000        2.8606100000        0.2149800000        5.4954000000
   132    22     3       -0.1380000000        1.5385300000        1.6438700000        6.3114900000
   133    22     4        0.3190000000        2.3348400000        0.5880000000        6.6250500000
   134    22     3       -0.1380000000        1.5322600000       -0.3994100000        7.1336000000
   135    23     2       -0.4610000000       -1.6743100000       -7.8796300000       -6.4168300000
   136    23     3       -0.1380000000       -3.2776300000       -9.0148300000       -9.7121600000
   137    23     4        0.3190000000       -2.2793800000       -8.5907300000       -8.9213300000
   138    23     5        0.9110000000       -2.7002800000       -8.6555300000       -7.1409300000
   139    23     2       -0.4610000000       -2.9376700000      -10.0081300000       -6.6202300000
   140    23     3       -0.1380000000       -1.1151200000       -9.3428300000       -9.1483700000
   141    23     6       -0.5880000000       -4.2122300000       -7.9911300000       -6.7790300000
   142    23     2       -0.4610000000       -5.8087600000       -6.4071300000       -5.7396300000
   143    23     3       -0.1380000000       -2.1127400000       -7.3582300000       -9.3504500000
   144    23     5        0.9110000000       -4.3771300000       -6.5372300000       -5.6575300000
   145    23     2       -0.4610000000       -3.7112400000       -6.8720300000       -4.4362300000
   146    23     3       -0.1380000000       -4.5748200000       -4.2547900000       -7.1210300000
   147    23     3       -0.1380000000       -2.6382700000       -5.1550100000       -7.3076300000
   148    23     4        0.3190000000       -3.6637400000       -4.9793100000       -6.4494300000
   149    23     3       -0.1380000000       -3.2165400000       -4.0912000000       -5.5525300000
   150    24     2       -0.4610000000       -2.6434300000        3.8019000000       -7.9915300000
   151    24     3       -0.1380000000       -5.7332600000        3.4834900000       -8.2015300000
   152    24     4        0.3190000000       -5.0722500000        4.4240700000       -8.9966300000
   153    24     5        0.9110000000       -3.3626400000        3.7570700000       -9.2785900000
   154    24     2       -0.4610000000       -2.7294000000        4.3489700000      -10.4780600000
   155    24     3       -0.1380000000       -5.9357600000        4.4970700000      -10.0320000000
   156    24     6       -0.5880000000       -3.5812700000        2.0324500000       -9.6608200000
   157    24     2       -0.4610000000       -3.8947400000        1.4109600000       -7.0298300000
   158    24     3       -0.1380000000       -5.0036800000        5.5945700000       -8.4082300000
   159    24     5        0.9110000000       -3.4903500000        0.8737700000       -8.3926300000
   160    24     2       -0.4610000000       -4.3469900000       -0.1396200000       -8.9629900000
   161    24     3       -0.1380000000       -0.9383400000        1.3037400000       -7.9052300000
   162    24     3       -0.1380000000       -1.3109300000        0.2370200000       -9.7445400000
   163    24     4        0.3190000000       -1.7685900000        0.3570900000       -8.4688300000
   164    24     3       -0.1380000000       -1.6007900000       -0.8121300000       -7.9140300000
   165    25     2       -0.4610000000       -4.5118200000       -0.4702500000        1.9052100000
   166    25     3       -0.1380000000       -7.2636600000       -0.8709800000        0.7106300000
   167    25     4        0.3190000000       -6.6982600000        0.3497800000        0.5097900000
   168    25     5        0.9110000000       -5.5524600000        0.5758700000        1.8931200000
   169    25     2       -0.4610000000       -6.3028600000        0.7953500000        3.1295700000
   170    25     3       -0.1380000000       -6.0255600000        0.1550400000       -0.6053400000
   171    25     6       -0.5880000000       -4.8046400000        2.1551900000        1.6458200000
   172    25     2       -0.4610000000       -4.8374000000        2.7452600000        4.2636900000
   173    25     3       -0.1380000000       -7.6120600000        1.3527500000        0.3355900000
   174    25     5        0.9110000000       -4.9238900000        3.3694500000        2.8930700000
   175    25     2       -0.4610000000       -3.7133800000        4.1511600000        2.5312600000
   176    25     3       -0.1380000000       -7.4924600000        3.3526300000        3.4856900000
   177    25     3       -0.1380000000       -6.8860600000        4.3797200000        1.5953100000
   178    25     4        0.3190000000       -6.5766600000        4.1161300000        2.8687600000
   179    25     3       -0.1380000000       -6.5530600000        5.3282700000        3.5115300000
   180    26     2       -0.4610000000        4.2690400000       -4.7834400000        3.0814500000
   181    26     3       -0.1380000000        2.5488800000       -4.2984800000        6.1025300000
   182    26     4        0.3190000000        3.3413400000       -3.4379200000        5.4252600000
   183    26     5        0.9110000000        4.5767400000       -4.2409500000        4.4167000000
   184    26     2       -0.4610000000        5.6365400000       -4.9559600000        5.0759300000
   185    26     3       -0.1380000000        2.6402800000       -2.7026400000        4.5354800000
   186    26     6       -0.5880000000        5.4782400000       -2.9370500000        3.8574000000
   187    26     2       -0.4610000000        6.7779400000       -4.4516700000        2.2382500000
   188    26     3       -0.1380000000        3.8668400000       -2.5449300000        6.2607500000
   189    26     5        0.9110000000        6.8002400000       -3.0657500000        2.6185200000
   190    26     2       -0.4610000000        6.2494400000       -2.1433200000        1.6425300000
   191    26     3       -0.1380000000        8.5064400000       -3.5114100000        4.4462500000
   192    26     3       -0.1380000000        8.2987400000       -1.4191500000        4.0868400000
   193    26     4        0.3190000000        8.3388400000       -2.5962400000        3.5240000000
   194    26     3       -0.1380000000        9.3221400000       -2.6069300000        2.6108000000
   195    27     2       -0.4610000000       -7.4564600000        1.9581400000       -6.3579300000
   196    27     3       -0.1380000000      -10.1429600000        3.3800900000       -7.0129300000
   197    27     4        0.3190000000      -10.0196600000        2.4281000000       -6.0564300000
   198    27     5        0.9110000000       -8.7220600000        1.2314900000       -6.3492300000
   199    27     2       -0.4610000000       -8.9634600000        0.3917000000       -7.5185300000
   200    27     3       -0.1380000000       -9.8395600000        3.0636400000       -4.9157300000
   201    27     6       -0.5880000000       -8.8472600000        0.0865400000       -5.0398300000
   202    27     2       -0.4610000000       -7.3374600000        1.6210200000       -3.4673300000
   203    27     3       -0.1380000000      -11.2444600000        1.9154800000       -5.8746300000
   204    27     5        0.9110000000       -7.8072600000        0.2280200000       -3.6111300000
   205    27     2       -0.4610000000       -8.6682600000       -0.4564200000       -2.5569300000
   206    27     3       -0.1380000000       -6.9133600000       -1.9348700000       -4.7533300000
   207    27     3       -0.1380000000       -5.7131600000       -1.3512700000       -3.0549300000
   208    27     4        0.3190000000       -6.4179600000       -0.8189400000       -4.1324300000
   209    27     3       -0.1380000000       -5.5795600000       -0.1675200000       -4.8950300000
   210    28     2       -0.4610000000        0.7439600000        7.6340700000        1.1095400000
   211    28     3       -0.1380000000        1.6500900000       10.1224700000        3.0994100000
   212    28     4        0.3190000000        1.1192400000        8.9740700000        3.4588100000
   213    28     5        0.9110000000        1.5967400000        7.7300700000        2.2442400000
   214    28     2       -0.4610000000        1.4758700000        6.3776700000        2.8076300000
   215    28     3       -0.1380000000        1.5521800000        8.6725700000        4.6844400000
   216    28     6       -0.5880000000        3.1942300000        7.8089700000        1.6281300000
   217    28     2       -0.4610000000        5.0797400000        9.0770700000        2.4996700000
   218    28     3       -0.1380000000       -0.2324400000        9.0987700000        3.5989600000
   219    28     5        0.9110000000        4.4525000000        7.7695700000        2.7703200000
   220    28     2       -0.4610000000        3.9462700000        7.5695700000        4.1058900000
   221    28     3       -0.1380000000        4.8410400000        5.1731700000        2.3521100000
   222    28     3       -0.1380000000        6.5193400000        6.1713700000        3.1836700000
   223    28     4        0.3190000000        5.5507400000        6.3515700000        2.3309400000
   224    28     3       -0.1380000000        6.0996400000        6.4704700000        1.1094400000
   225    29     7       -0.8200000000        1.2032400000       -0.9036400000        1.4433400000
   226    29     8        0.4100000000        1.8175400000       -0.1342300000        1.6292500000
   227    29     8        0.4100000000        1.7535200000       -1.7571400000        1.5114300000
   228    30     7       -0.8200000000       -1.2369200000        4.5909700000       -0.8243300000
   229    30     8        0.4100000000       -1.4293800000        4.0507600000       -1.7001200000
   230    30     8        0.4100000000       -0.9387700000        3.7458700000       -0.2554900000
   231    31     7       -0.8200000000       -1.7124500000        6.5136700000        1.3241900000
   232    31     8        0.4100000000       -0.8055500000        6.9558700000        1.4752500000
   233    31     8        0.4100000000       -2.4358300000        7.0712700000        1.8254300000
   234    32     7       -0.8200000000        0.0672200000        4.2104900000        5.7281700000
   235    32     8        0.4100000000       -0.2384000000        3.2492200000        5.6657000000
   236    32     8        0.4100000000       -0.7547200000        4.7775700000        6.0003100000
   237    33     7       -0.8200000000       -2.6989400000        6.9114700000       -2.8119300000
   238    33     8        0.4100000000       -2.1492800000        6.0915700000       -3.1066300000
   239    33     8        0.4100000000       -3.7014700000        6.7202700000       -2.9416300000
   240    34     7       -0.8200000000       -4.4265700000        6.3491700000        0.3113800000
   241    34     8        0.4100000000       -5.2578900000        5.9972700000       -0.1569700000
   242    34     8        0.4100000000       -4.4837300000        7.2817700000        0.7201300000
   243    35     7       -0.8200000000       -6.6946600000        7.4334700000       -7.7051300000
   244    35     8        0.4100000000       -5.7954600000        7.8604700000       -7.4328300000
   245    35     8        0.4100000000       -6.7200600000        7.2645700000       -8.7106300000
   246    36     7       -0.8200000000        1.0025000000        6.6525700000       -1.9961400000
   247    36     8        0.4100000000        1.8162800000        6.6472700000       -1.4174600000
   248    36     8        0.4100000000        1.3817600000        6.4580700000       -2.9512300000
   249    37     7       -0.8200000000        1.3890000000        6.7128700000       -5.0548300000
   250    37     8        0.4100000000        2.3624400000        6.5509700000       -5.3930300000
   251    37     8        0.4100000000        1.1582500000        7.7344700000       -5.0307300000
   252    38     7       -0.8200000000        6.2845400000        6.1697700000       -5.1342300000
   253    38     8        0.4100000000        6.7185400000        6.0785700000       -4.1517300000
   254    38     8        0.4100000000        5.3770400000        5.5954700000       -5.2748300000
   255    39     7       -0.8200000000        3.3420700000       -2.6571300000        1.0217100000
   256    39     8        0.4100000000        2.7284700000       -3.2338700000        0.3960400000
   257    39     8        0.4100000000        3.6350200000       -3.2437200000        1.7916100000
   258    40     7       -0.8200000000        2.1000900000        3.5789300000       -5.6108300000
   259    40     8        0.4100000000        1.8720600000        2.8625500000       -4.9030300000
   260    40     8        0.4100000000        2.2781700000        2.9917400000       -6.4360300000
   261    41     7       -0.8200000000       -3.5947900000        2.9783600000       -0.8252100000
   262    41     8        0.4100000000       -4.6179900000        2.9798600000       -0.8819300000
   263    41     8        0.4100000000       -3.3804100000        2.2298700000       -0.1076700000
   264    42     7       -0.8200000000       -2.9767900000        3.6312400000       -3.3478300000
   265    42     8        0.4100000000       -3.6708200000        3.4278700000       -4.1440300000
   266    42     8        0.4100000000       -3.3446500000        3.4415100000       -2.4093300000
   267    43     7       -0.8200000000        2.8076600000        5.6185700000        5.4512200000
   268    43     8        0.4100000000        3.4587400000        5.3546700000        6.1426500000
   269    43     8        0.4100000000        3.3040900000        6.3287700000        4.8681100000
   270    44     7       -0.8200000000       -7.6690600000       -4.7600400000       -6.9157300000
   271    44     8        0.4100000000       -7.2211600000       -5.4765400000       -6.2986300000
   272    44     8        0.4100000000       -8.6393600000       -5.0687200000       -6.9987300000
   273    45     7       -0.8200000000        7.9356400000       -7.6507300000       -6.2867300000
   274    45     8        0.4100000000        8.8034400000       -7.9951300000       -6.8206300000
   275    45     8        0.4100000000        8.2896400000       -7.4287300000       -5.3946300000
   276    46     7       -0.8200000000        6.2373400000        7.5662700000        7.9620700000
   277    46     8        0.4100000000        6.6797400000        6.7244700000        7.6013300000
   278    46     8        0.4100000000        6.4116400000        8.4011700000        7.2926700000
   279    47     7       -0.8200000000        5.9206400000       -5.1247000000       -7.8930300000
   280    47     8        0.4100000000        5.0123400000       -5.2192300000       -7.4685300000
   281    47     8        0.4100000000        6.0320400000       -5.8172300000       -8.5732300000
   282    48     7       -0.8200000000       -7.0781600000       -1.3615000000       -8.2741300000
   283    48     8        0.4100000000       -7.6771600000       -0.5702900000       -8.0513300000
   284    48     8        0.4100000000       -6.1860600000       -1.0700000000       -8.7059300000
   285    49     7       -0.8200000000       -5.0122200000        2.9530200000       -4.8211300000
   286    49     8        0.4100000000       -5.4454600000        2.2155000000       -4.2308300000