LAMMPS data file
# 14 LI molecules
# 14 TF2 molecules
# 39 wat molecules

8 atom types
5 bond types
8 angle types
6 dihedral types

341 atoms
274 bonds
389 angles
420 dihedrals

    0.0000   16.5843 xlo xhi
    0.0000   16.5843 ylo yhi
    0.0000   16.5843 zlo zhi

Masses

1    6.941  # li LI
2   16.000  # o TF2
3   19.000  # f TF2
4   12.010  # c3 TF2
5   32.060  # sy TF2
6   14.010  # ne TF2
7   16.000  # oh wat
8    1.008  # ho wat

Pair Coeffs

1 0.0182660800896 2.126  # li LI
2 0.209859347635 2.960  # o TF2
3 0.0609584251392 3.118  # f TF2
4 0.10932640151 3.400  # c3 TF2
5 0.249833029536 3.564  # sy TF2
6 0.169885665734 3.250  # ne TF2
7 0.155323242893 3.165  # oh wat
8 0.0 0.000  # ho wat

Bond Coeffs

1 492.669820742  1.466  # harmonic TF2 o sy
2 363.556158739  1.344  # harmonic TF2 c3 f
3 248.732854675  1.782  # harmonic TF2 c3 sy
4 256.928561626  1.752  # harmonic TF2 ne sy
5 529.230180349  1.012  # harmonic wat ho oh

Angle Coeffs

1 41.2525855296  108.48  # harmonic TF2 c3 sy o
2 45.2700110592  121.88  # harmonic TF2 o sy o
3 43.0716472128  107.06  # harmonic TF2 ne sy o
4 81.1647052992  109.67  # harmonic TF2 f c3 sy
5 71.2114987968  107.16  # harmonic TF2 f c3 f
6 39.3938063424  103.12  # harmonic TF2 c3 sy ne
7 109.646127418  119.18  # harmonic TF2 sy ne sy
8 37.924854457  113.24  # harmonic wat ho oh ho

Dihedral Coeffs

1 0.143896516992  3 0 0.0  # charmm TF2 f c3 sy o
2 0.143896516992  3 0 0.0  # charmm TF2 f c3 sy ne
3 0.499666059072  3 180 0.0  # charmm TF2 sy ne sy o
4 6.79544648813  1 180 0.0  # charmm TF2 sy ne sy o
5 0.499666059072  3 180 0.0  # charmm TF2 sy ne sy c3
6 6.79544648813  1 180 0.0  # charmm TF2 sy ne sy c3

Atoms

     1     1     1        0.8000000000        0.0000000000        0.0000000000        0.0000000000
     2     2     1        0.8000000000       -4.3093700000       -0.3360000000       -1.0552000000
     3     3     1        0.8000000000        1.4944900000       -3.5814000000        7.0954800000
     4     4     1        0.8000000000        2.5399500000       -5.6679600000       -4.4846100000
     5     5     1        0.8000000000        6.1620200000       -5.8083000000       -7.4495100000
     6     6     1        0.8000000000       -6.3774700000       -7.8859500000       -7.5437500000
     7     7     1        0.8000000000        6.7088900000        3.1080300000        2.1311000000
     8     8     1        0.8000000000        0.8300600000       -7.6866500000        3.9398000000
     9     9     1        0.8000000000       -7.8758800000       -7.3857500000        3.6428000000
    10    10     1        0.8000000000        7.7833300000        2.8449900000       -8.2516900000
    11    11     1        0.8000000000        5.6521600000       -3.1112000000       -0.4173000000
    12    12     1        0.8000000000       -6.0188700000       -2.5637000000       -2.8362200000
    13    13     1        0.8000000000       -3.6252700000        6.7622200000       -2.6171000000
    14    14     1        0.8000000000        0.7782400000        2.7216700000        7.7592100000
    15    15     2       -0.4610000000       -7.2364800000        4.2736400000        4.1689000000
    16    15     3       -0.1380000000       -7.3602000000        0.5008000000        3.9839000000
    17    15     4        0.3190000000       -6.6459700000        1.6516000000        4.0239000000
    18    15     5        0.9110000000       -7.5794000000        3.0499300000        4.8606100000
    19    15     2       -0.4610000000       -7.4937900000        2.9387600000        6.3086500000
    20    15     3       -0.1380000000       -5.4792700000        1.4602000000        4.7001700000
    21    15     6       -0.5880000000       -9.1489500000        2.6367400000        4.2471000000
    22    15     2       -0.4610000000      -10.2673400000        2.6688700000        6.6872000000
    23    15     3       -0.1380000000       -6.3841700000        1.9542000000        2.7417000000
    24    15     5        0.9110000000      -10.4991500000        2.1567000000        5.2982000000
    25    15     2       -0.4610000000      -11.7213900000        2.5720300000        4.6189100000
    26    15     3       -0.1380000000      -11.6870000000        0.0049000000        6.0032000000
    27    15     3       -0.1380000000       -9.4894700000       -0.1135000000        6.2791800000
    28    15     4        0.3190000000      -10.5239800000        0.3476000000        5.4351300000
    29    15     3       -0.1380000000      -10.3997800000       -0.2956000000        4.2714000000
    30    16     2       -0.4610000000        1.7977600000        5.2091000000       -6.6496000000
    31    16     3       -0.1380000000        4.1625000000        8.0074100000       -7.9024200000
    32    16     4        0.3190000000        2.9276200000        7.5075500000       -7.5665000000
    33    16     5        0.9110000000        2.9835300000        6.0607400000       -6.4229400000
    34    16     2       -0.4610000000        3.3709500000        6.3746900000       -5.0859000000
    35    16     3       -0.1380000000        2.2274600000        8.5629900000       -7.0282500000
    36    16     6       -0.5880000000        4.2101300000        4.9696400000       -7.1185700000
    37    16     2       -0.4610000000        6.5404100000        4.0738500000       -7.2691800000
    38    16     3       -0.1380000000        2.3526900000        7.1495100000       -8.6973700000
    39    16     5        0.9110000000        5.7419200000        4.8518300000       -6.3358400000
    40    16     2       -0.4610000000        6.1564400000        6.2709700000       -6.3511000000
    41    16     3       -0.1380000000        5.8315700000        5.4469100000       -3.7838500000
    42    16     3       -0.1380000000        6.6988400000        3.5032600000       -4.3018900000
    43    16     4        0.3190000000        5.6788500000        4.3645500000       -4.5774200000
    44    16     3       -0.1380000000        4.5256400000        3.8057800000       -4.2448500000
    45    17     2       -0.4610000000       -7.7361700000       -7.7832800000        7.0258600000
    46    17     3       -0.1380000000       -9.5616300000      -10.4177400000        7.4526900000
    47    17     4        0.3190000000       -9.8223700000       -9.5947000000        6.3915900000
    48    17     5        0.9110000000       -9.1716400000       -7.9095700000        6.6753000000
    49    17     2       -0.4610000000       -9.9137600000       -7.0905800000        7.6020800000
    50    17     3       -0.1380000000       -9.2845800000      -10.1381700000        5.2878900000
    51    17     6       -0.5880000000       -9.4337700000       -7.0630900000        5.1323500000
    52    17     2       -0.4610000000      -10.3272600000       -5.1452400000        3.7724000000
    53    17     3       -0.1380000000      -11.1646600000       -9.4631600000        6.2201000000
    54    17     5        0.9110000000      -10.2980900000       -5.5239700000        5.1663200000
    55    17     2       -0.4610000000      -11.6519600000       -5.8143300000        5.7684700000
    56    17     3       -0.1380000000       -9.6274000000       -4.2961100000        7.4568200000
    57    17     3       -0.1380000000       -9.9191800000       -3.0546000000        5.8477900000
    58    17     4        0.3190000000       -9.4192700000       -4.2066000000        6.1259000000
    59    17     3       -0.1380000000       -8.0582600000       -4.1209000000        5.7548900000
    60    18     2       -0.4610000000        2.0262200000        6.0775700000        1.3236000000
    61    18     3       -0.1380000000        1.2454300000        6.6962300000       -1.4017000000
    62    18     4        0.3190000000        0.5542200000        7.2615000000       -0.4340000000
    63    18     5        0.9110000000        1.3975600000        7.3716900000        1.1125000000
    64    18     2       -0.4610000000        0.5512700000        8.0247000000        2.1128000000
    65    18     3       -0.1380000000        0.1567100000        8.5259400000       -0.8285000000
    66    18     6       -0.5880000000        2.5897600000        8.5648600000        0.8400000000
    67    18     2       -0.4610000000        4.2057700000        7.0769300000       -0.3872000000
    68    18     3       -0.1380000000       -0.5726700000        6.6023900000       -0.2766000000
    69    18     5        0.9110000000        4.2439400000        8.1729500000        0.5547000000
    70    18     2       -0.4610000000        4.7874100000        9.4611400000        0.1277000000
    71    18     3       -0.1380000000        4.4242800000        6.5337400000        2.5941000000
    72    18     3       -0.1380000000        5.1121800000        8.4950200000        3.0750000000
    73    18     4        0.3190000000        5.0098600000        7.5956100000        2.0918000000
    74    18     3       -0.1380000000        6.2853800000        7.1879500000        1.9544000000
    75    19     2       -0.4610000000        2.0540900000       -4.4060900000        1.6854000000
    76    19     3       -0.1380000000        2.5543100000       -2.4770000000        3.8229000000
    77    19     4        0.3190000000        3.2266600000       -2.2638000000        2.6710000000
    78    19     5        0.9110000000        2.4708300000       -3.0948000000        1.1971000000
    79    19     2       -0.4610000000        3.3407600000       -3.1240000000       -0.0026000000
    80    19     3       -0.1380000000        3.3337500000       -0.9101000000        2.5068000000
    81    19     6       -0.5880000000        0.9788200000       -2.3279000000        0.7094000000
    82    19     2       -0.4610000000       -0.1233200000       -3.1558000000        2.8778000000
    83    19     3       -0.1380000000        4.5221300000       -2.6656000000        2.8638000000
    84    19     5        0.9110000000       -0.4303700000       -2.6978000000        1.5881000000
    85    19     2       -0.4610000000       -0.9826700000       -1.3594000000        1.4809000000
    86    19     3       -0.1380000000       -1.7637700000       -3.6141000000       -0.4831000000
    87    19     3       -0.1380000000       -2.4407700000       -4.5145300000        1.3267000000
    88    19     4        0.3190000000       -1.3033700000       -4.0848000000        0.7156000000
    89    19     3       -0.1380000000       -0.4540700000       -5.0893800000        0.4880000000
    90    20     2       -0.4610000000       -0.0361700000       -0.7037000000       -2.0588000000
    91    20     3       -0.1380000000        1.7617100000       -2.1545000000       -5.1767300000
    92    20     4        0.3190000000        1.6011600000       -1.1972000000       -4.2148600000
    93    20     5        0.9110000000        0.0670300000       -1.5731000000       -3.2161500000
    94    20     2       -0.4610000000       -0.2581000000       -2.9861000000       -2.9508200000
    95    20     3       -0.1380000000        2.7132000000       -1.3938000000       -3.4540700000
    96    20     6       -0.5880000000       -1.3743700000       -1.0788000000       -4.0889700000
    97    20     2       -0.4610000000       -0.8545700000       -2.7724000000       -5.8811300000
    98    20     3       -0.1380000000        1.5184600000        0.0561000000       -4.6761100000
    99    20     5        0.9110000000       -1.6858700000       -1.6037000000       -5.7134300000
   100    20     2       -0.4610000000       -3.1324700000       -1.7553000000       -5.5471700000
   101    20     3       -0.1380000000        0.0246700000       -0.5826000000       -7.3951000000
   102    20     3       -0.1380000000       -1.3577700000        0.8133000000       -6.4401600000
   103    20     4        0.3190000000       -1.2455700000       -0.3967000000       -7.0163600000
   104    20     3       -0.1380000000       -2.0744700000       -0.4644000000       -8.1101800000
   105    21     2       -0.4610000000        1.5644400000        5.1244400000        4.8063100000
   106    21     3       -0.1380000000       -2.2763700000        4.7635200000        4.6067600000
   107    21     4        0.3190000000       -1.1259700000        5.4535700000        4.7590900000
   108    21     5        0.9110000000        0.3597800000        4.3911100000        4.5021700000
   109    21     2       -0.4610000000        0.2491900000        3.7552400000        3.1853000000
   110    21     3       -0.1380000000       -1.0228700000        6.5682600000        3.9609000000
   111    21     6       -0.5880000000        0.0882700000        3.1063900000        5.6660600000
   112    21     2       -0.4610000000        1.7289300000        1.5740000000        4.3543000000
   113    21     3       -0.1380000000       -1.0652700000        5.9015100000        6.0817200000
   114    21     5        0.9110000000        0.6540200000        1.4922000000        5.3422100000
   115    21     2       -0.4610000000        1.1549900000        1.0183000000        6.6849400000
   116    21     3       -0.1380000000       -0.3010400000       -0.8056000000        4.6669800000
   117    21     3       -0.1380000000       -1.0551700000        0.9120000000        3.4507000000
   118    21     4        0.3190000000       -0.7226700000        0.5245000000        4.7671900000
   119    21     3       -0.1380000000       -1.8209700000        0.6828000000        5.4981200000
   120    22     2       -0.4610000000       -3.0525700000       -8.0751200000       -1.6399000000
   121    22     3       -0.1380000000       -5.0171700000       -8.2151500000        0.6493000000
   122    22     4        0.3190000000       -4.2963700000       -7.1006200000        0.4478000000
   123    22     5        0.9110000000       -3.8135700000       -6.8815400000       -1.2070000000
   124    22     2       -0.4610000000       -3.3193700000       -5.5050600000       -1.5375000000
   125    22     3       -0.1380000000       -4.9832700000       -6.0712000000        1.0238000000
   126    22     6       -0.5880000000       -5.2587700000       -7.3076200000       -2.1244700000
   127    22     2       -0.4610000000       -5.9872700000       -4.8071600000       -1.8604000000
   128    22     3       -0.1380000000       -3.2024700000       -7.3499500000        1.2339000000
   129    22     5        0.9110000000       -6.3031700000       -6.0037700000       -2.6243300000
   130    22     2       -0.4610000000       -6.1330700000       -6.1061000000       -4.0460900000
   131    22     3       -0.1380000000       -8.2169500000       -7.7045900000       -2.9009200000
   132    22     3       -0.1380000000       -8.8500100000       -5.5596900000       -2.3581500000
   133    22     4        0.3190000000       -7.9433400000       -6.5519700000       -2.1705100000
   134    22     3       -0.1380000000       -7.9751300000       -6.9504900000       -0.8790000000
   135    23     2       -0.4610000000        7.7406100000       -2.7137000000       -0.3792000000
   136    23     3       -0.1380000000        8.3843700000       -2.0309000000        2.5779000000
   137    23     4        0.3190000000        9.3402600000       -2.2623000000        1.6589000000
   138    23     5        0.9110000000        8.9049900000       -1.9083000000       -0.0391000000
   139    23     2       -0.4610000000       10.0095300000       -1.9134000000       -0.9445000000
   140    23     3       -0.1380000000       10.3421300000       -1.4511000000        2.0723000000
   141    23     6       -0.5880000000        8.2606700000       -0.2558000000        0.0240000000
   142    23     2       -0.4610000000        5.7982800000       -0.9482000000        0.3450000000
   143    23     3       -0.1380000000        9.6192300000       -3.5681000000        1.8521000000
   144    23     5        0.9110000000        6.6268200000        0.2490000000        0.0525000000
   145    23     2       -0.4610000000        6.7784600000        1.3217000000        1.0158000000
   146    23     3       -0.1380000000        5.1049200000        1.1004000000       -1.8470000000
   147    23     3       -0.1380000000        6.4538500000       -0.4574000000       -2.5148000000
   148    23     4        0.3190000000        6.2951000000        0.5732000000       -1.6857000000
   149    23     3       -0.1380000000        7.1531900000        1.4449000000       -2.1952400000
   150    24     2       -0.4610000000       -1.7409700000        5.6444500000       -2.8378800000
   151    24     3       -0.1380000000        0.6333000000        3.0193300000       -4.5522600000
   152    24     4        0.3190000000        0.2240700000        3.9652700000       -3.6521800000
   153    24     5        0.9110000000       -1.4285700000        4.7077700000       -3.9193300000
   154    24     2       -0.4610000000       -2.4682700000        3.7139300000       -4.2146900000
   155    24     3       -0.1380000000        0.2851700000        3.3897600000       -2.4360300000
   156    24     6       -0.5880000000       -1.1567700000        5.7056500000       -5.3506100000
   157    24     2       -0.4610000000       -2.7950700000        7.4253600000       -4.6213200000
   158    24     3       -0.1380000000        1.1802200000        4.9627900000       -3.6817100000
   159    24     5        0.9110000000       -1.5543700000        7.3731800000       -5.3932500000
   160    24     2       -0.4610000000       -0.3196500000        8.0062900000       -4.8644700000
   161    24     3       -0.1380000000       -1.3010700000        9.0831700000       -7.2940000000
   162    24     3       -0.1380000000       -2.6525700000        7.3937300000       -7.8086800000
   163    24     4        0.3190000000       -1.5695700000        7.7906600000       -7.1329200000
   164    24     3       -0.1380000000       -0.5366700000        7.2404400000       -7.7931100000
   165    25     2       -0.4610000000       -6.3566700000       -6.3985200000        4.7273500000
   166    25     3       -0.1380000000       -3.9391700000       -8.7105100000        4.2922000000
   167    25     4        0.3190000000       -4.2660700000       -8.0767400000        5.4347200000
   168    25     5        0.9110000000       -4.9597700000       -6.5044600000        4.9809400000
   169    25     2       -0.4610000000       -3.9745700000       -6.0296500000        4.0206000000
   170    25     3       -0.1380000000       -5.1823700000       -8.7703500000        6.1211200000
   171    25     6       -0.5880000000       -4.9372700000       -5.3428600000        6.2378600000
   172    25     2       -0.4610000000       -3.2671700000       -4.0521000000        7.7755900000
   173    25     3       -0.1380000000       -3.0997700000       -8.0387600000        6.1222100000
   174    25     5        0.9110000000       -3.4994700000       -4.3535800000        6.3489500000
   175    25     2       -0.4610000000       -2.4412700000       -5.0696200000        5.7975000000
   176    25     3       -0.1380000000       -2.7913700000       -2.0273000000        5.4963500000
   177    25     3       -0.1380000000       -4.8521700000       -2.1520000000        6.0147100000
   178    25     4        0.3190000000       -3.8492700000       -2.8639000000        5.4818500000
   179    25     3       -0.1380000000       -4.2625700000       -3.0458000000        4.2117000000
   180    26     2       -0.4610000000       -5.2854700000        5.7012600000       -3.8370700000
   181    26     3       -0.1380000000       -7.0014700000        2.5513200000       -5.1129700000
   182    26     4        0.3190000000       -6.2134700000        3.1764900000       -4.3279000000
   183    26     5        0.9110000000       -6.0335700000        4.9145900000       -4.7987500000
   184    26     2       -0.4610000000       -7.2967800000        5.5186100000       -5.2169900000
   185    26     3       -0.1380000000       -6.6866700000        3.1258400000       -3.1157000000
   186    26     6       -0.5880000000       -4.9818700000        4.9804500000       -6.1667100000
   187    26     2       -0.4610000000       -6.8410700000        4.0895300000       -7.7682900000
   188    26     3       -0.1380000000       -5.0247700000        2.5550200000       -4.2801000000
   189    26     5        0.9110000000       -5.6685700000        4.9992000000       -7.7551800000
   190    26     2       -0.4610000000       -6.0284700000        6.3896400000       -8.0785100000
   191    26     3       -0.1380000000       -3.2238700000        5.1240100000       -8.7411200000
   192    26     3       -0.1380000000       -4.7326700000        4.4545400000      -10.2068600000
   193    26     4        0.3190000000       -4.3769700000        4.4081500000       -8.8732800000
   194    26     3       -0.1380000000       -4.0997700000        3.1024400000       -8.7060800000
   195    27     2       -0.4610000000       -8.1760900000        3.5830900000        0.9076000000
   196    27     3       -0.1380000000       -7.0023700000        6.2303100000       -1.5708000000
   197    27     4        0.3190000000       -7.9609200000        5.4943700000       -0.9469000000
   198    27     5        0.9110000000       -7.2757000000        4.6578500000        0.4708000000
   199    27     2       -0.4610000000       -6.7942700000        5.7152800000        1.3705000000
   200    27     3       -0.1380000000       -8.9422000000        6.2969400000       -0.4521000000
   201    27     6       -0.5880000000       -5.9416700000        3.8353500000       -0.3110000000
   202    27     2       -0.4610000000       -3.5945700000        3.4433000000       -0.9497000000
   203    27     3       -0.1380000000       -8.4684300000        4.6285000000       -1.7968000000
   204    27     5        0.9110000000       -4.3261700000        4.4912200000       -0.1891000000
   205    27     2       -0.4610000000       -4.5170700000        5.7275700000       -0.8712000000
   206    27     3       -0.1380000000       -2.3444700000        4.5313200000        1.4785000000
   207    27     3       -0.1380000000       -4.1036700000        3.6517800000        2.2709000000
   208    27     4        0.3190000000       -3.7196700000        4.6176600000        1.5251000000
   209    27     3       -0.1380000000       -4.1486700000        5.7342700000        2.0981000000
   210    28     2       -0.4610000000        4.5126200000       -1.9190000000       -7.1917900000
   211    28     3       -0.1380000000        5.2425100000        1.2330000000       -7.0803600000
   212    28     4        0.3190000000        5.2203500000        0.4624000000       -5.9532000000
   213    28     5        0.9110000000        5.5385500000       -1.2601000000       -6.3643300000
   214    28     2       -0.4610000000        6.0393000000       -1.9336000000       -5.1614400000
   215    28     3       -0.1380000000        6.1274100000        0.9262000000       -5.0766200000
   216    28     6       -0.5880000000        6.9248900000       -1.1906000000       -7.4057300000
   217    28     2       -0.4610000000        8.0789800000        1.0448000000       -7.2908000000
   218    28     3       -0.1380000000        4.1177500000        0.6859000000       -5.2624100000
   219    28     5        0.9110000000        8.3851300000       -0.3950000000       -6.9651800000
   220    28     2       -0.4610000000        8.4272200000       -0.6761000000       -5.5158500000
   221    28     3       -0.1380000000        9.6615300000       -0.7709000000       -9.2218800000
   222    28     3       -0.1380000000       10.1922300000       -2.1861000000       -7.5586000000
   223    28     4        0.3190000000        9.8216300000       -0.9168000000       -7.8700000000
   224    28     3       -0.1380000000       10.9248300000       -0.1369000000       -7.6110500000
   225    29     7       -0.8200000000        5.9166800000       -3.2306000000       -2.4388500000
   226    29     8        0.4100000000        5.8325100000       -2.7078000000       -3.3382900000
   227    29     8        0.4100000000        6.9269700000       -3.5657000000       -2.3855500000
   228    30     7       -0.8200000000        8.2835600000        7.9238600000       -6.1391300000
   229    30     8        0.4100000000        7.6406900000        7.1498500000       -6.1642800000
   230    30     8        0.4100000000        9.0444700000        7.5955000000       -5.5533200000
   231    31     7       -0.8200000000       -1.6855700000       -5.0420800000       -4.0362100000
   232    31     8        0.4100000000       -2.3632700000       -5.2229700000       -3.3011200000
   233    31     8        0.4100000000       -0.9672700000       -4.4767600000       -3.5240600000
   234    32     7       -0.8200000000        0.6054100000       -6.1820700000       -5.3732400000
   235    32     8        0.4100000000        0.5014500000       -7.1954900000       -5.0953700000
   236    32     8        0.4100000000       -0.1958600000       -5.6928300000       -4.9642500000
   237    33     7       -0.8200000000        0.4905200000       -4.3713800000       -7.7085000000
   238    33     8        0.4100000000       -0.1160600000       -3.7434000000       -7.0854400000
   239    33     8        0.4100000000        0.7899200000       -5.1530500000       -7.1568700000
   240    34     7       -0.8200000000        2.2107700000       -6.2927700000        3.5622000000
   241    34     8        0.4100000000        1.8993200000       -5.8855500000        2.6734000000
   242    34     8        0.4100000000        3.2365300000       -6.2833100000        3.6224000000
   243    35     7       -0.8200000000       -5.7796700000        1.0142000000       -1.0295000000
   244    35     8        0.4100000000       -6.7526700000        0.9925000000       -0.7894000000
   245    35     8        0.4100000000       -5.6196700000        1.9726000000       -1.1784000000
   246    36     7       -0.8200000000        4.2314500000       -5.1511600000       -7.6022800000
   247    36     8        0.4100000000        3.6455400000       -5.7676600000       -8.1416200000
   248    36     8        0.4100000000        4.0605600000       -4.1401000000       -7.6347200000
   249    37     7       -0.8200000000        2.2353900000       -1.5406000000        7.1944400000
   250    37     8        0.4100000000        1.8379000000       -0.6506000000        6.7706800000
   251    37     8        0.4100000000        3.0325200000       -1.2762000000        7.7809000000
   252    38     7       -0.8200000000        2.8008700000        3.4927100000        7.1302600000
   253    38     8        0.4100000000        3.6910800000        3.5976500000        7.6273700000
   254    38     8        0.4100000000        3.0803900000        3.3943800000        6.1496500000
   255    39     7       -0.8200000000        1.7745100000        0.7612000000        0.4826000000
   256    39     8        0.4100000000        2.0936400000        1.0157000000        1.4235000000
   257    39     8        0.4100000000        2.1627800000        1.5099000000       -0.1142000000
   258    40     7       -0.8200000000       -3.6472700000       -0.2402000000        0.8971000000
   259    40     8        0.4100000000       -2.7401700000       -0.1082000000        1.2162000000
   260    40     8        0.4100000000       -4.2649700000        0.1606000000        1.5711000000
   261    41     7       -0.8200000000       -5.5227700000       -8.2843400000       -5.7188900000
   262    41     8        0.4100000000       -4.7823700000       -8.9260500000       -5.5432300000
   263    41     8        0.4100000000       -5.4022700000       -7.5683500000       -4.9933300000
   264    42     7       -0.8200000000        2.7586800000        2.6493400000        2.0443000000
   265    42     8        0.4100000000        2.7938600000        2.1674000000        2.9388000000
   266    42     8        0.4100000000        1.9083700000        3.1681200000        2.1399000000
   267    43     7       -0.8200000000        5.3296300000       -4.7063300000        0.9252000000
   268    43     8        0.4100000000        4.9097600000       -5.5344200000        0.5508000000
   269    43     8        0.4100000000        5.3552300000       -4.7615200000        1.9708000000
   270    44     7       -0.8200000000       -5.8664700000       -5.9270400000       -7.7681200000
   271    44     8        0.4100000000       -5.1226700000       -5.4936900000       -7.2549200000
   272    44     8        0.4100000000       -5.4692700000       -5.7837300000       -8.7389600000
   273    45     7       -0.8200000000        5.0324100000        3.8450300000        1.0997000000
   274    45     8        0.4100000000        4.8928000000        4.4164200000        0.2931000000
   275    45     8        0.4100000000        4.1723800000        3.3151000000        1.3858000000
   276    46     7       -0.8200000000        4.5363400000       -5.1560300000       -4.4444200000
   277    46     8        0.4100000000        4.9271900000       -5.9905400000       -4.8962200000
   278    46     8        0.4100000000        5.2971800000       -4.7119100000       -3.9619400000
   279    47     7       -0.8200000000        1.8354300000        2.1953000000       -7.0185800000
   280    47     8        0.4100000000        2.0059800000        1.4999000000       -6.3524300000
   281    47     8        0.4100000000        2.1614200000        3.1660100000       -6.8412000000
   282    48     7       -0.8200000000        0.1826400000       -3.7944000000        5.6014600000
   283    48     8        0.4100000000       -0.3752200000       -4.6677600000        5.6035700000
   284    48     8        0.4100000000        0.2788200000       -3.4702000000        4.6488400000
   285    49     7       -0.8200000000        2.6885200000        3.1657900000       -0.8124000000
   286    49     8        0.4100000000        2.5694100000        4.0777200000       -0.3333000000