LAMMPS data file
# 14 LI molecules
# 14 TF2 molecules
# 39 wat molecules

8 atom types
5 bond types
8 angle types
6 dihedral types

341 atoms
274 bonds
389 angles
420 dihedrals

    0.0000   16.9073 xlo xhi
    0.0000   16.9207 ylo yhi
    0.0000   16.9298 zlo zhi

Masses

1    6.941  # li LI
2   16.000  # o TF2
3   19.000  # f TF2
4   12.010  # c3 TF2
5   32.060  # sy TF2
6   14.010  # ne TF2
7   16.000  # oh wat
8    1.008  # ho wat

Pair Coeffs

1 0.0182660800896 2.126  # li LI
2 0.209859347635 2.960  # o TF2
3 0.0609584251392 3.118  # f TF2
4 0.10932640151 3.400  # c3 TF2
5 0.249833029536 3.564  # sy TF2
6 0.169885665734 3.250  # ne TF2
7 0.155323242893 3.165  # oh wat
8 0.0 0.000  # ho wat

Bond Coeffs

1 492.669820742  1.466  # harmonic TF2 o sy
2 363.556158739  1.344  # harmonic TF2 c3 f
3 248.732854675  1.782  # harmonic TF2 c3 sy
4 256.928561626  1.752  # harmonic TF2 ne sy
5 529.230180349  1.012  # harmonic wat ho oh

Angle Coeffs

1 41.2525855296  108.48  # harmonic TF2 c3 sy o
2 45.2700110592  121.88  # harmonic TF2 o sy o
3 43.0716472128  107.06  # harmonic TF2 ne sy o
4 81.1647052992  109.67  # harmonic TF2 f c3 sy
5 71.2114987968  107.16  # harmonic TF2 f c3 f
6 39.3938063424  103.12  # harmonic TF2 c3 sy ne
7 109.646127418  119.18  # harmonic TF2 sy ne sy
8 37.924854457  113.24  # harmonic wat ho oh ho

Dihedral Coeffs

1 0.143896516992  3 0 0.0  # charmm TF2 f c3 sy o
2 0.143896516992  3 0 0.0  # charmm TF2 f c3 sy ne
3 0.499666059072  3 180 0.0  # charmm TF2 sy ne sy o
4 6.79544648813  1 180 0.0  # charmm TF2 sy ne sy o
5 0.499666059072  3 180 0.0  # charmm TF2 sy ne sy c3
6 6.79544648813  1 180 0.0  # charmm TF2 sy ne sy c3

Atoms

     1     1     1        0.8000000000        0.0000000000        0.0000000000        0.0000000000
     2     2     1        0.8000000000       -5.3705000000       -6.4490700000       -7.2833000000
     3     3     1        0.8000000000        7.1475500000       -4.2685700000        4.9103700000
     4     4     1        0.8000000000       -3.5383000000       -4.4041700000       -1.7601200000
     5     5     1        0.8000000000        0.9431700000       -7.2433700000       -4.0762200000
     6     6     1        0.8000000000        1.6179700000        4.9364100000        0.0239300000
     7     7     1        0.8000000000        2.1662700000        1.6976100000       -8.2780700000
     8     8     1        0.8000000000        6.8285700000       -6.1615700000       -5.2522200000
     9     9     1        0.8000000000       -1.8840800000       -6.3249700000        3.0151100000
    10    10     1        0.8000000000       -5.2066600000        3.4643300000        6.0427400000
    11    11     1        0.8000000000       -5.5798100000        6.4407600000       -0.3082200000
    12    12     1        0.8000000000        3.6684700000       -4.3270700000       -5.5927200000
    13    13     1        0.8000000000       -2.4704000000        7.0178000000        6.7385800000
    14    14     1        0.8000000000        4.7314700000        3.3356100000        6.5292400000
    15    15     2       -0.4610000000       -1.0847300000        5.2373600000        7.7760000000
    16    15     3       -0.1380000000       -2.4864400000        2.2227300000        7.7190100000
    17    15     4        0.3190000000       -2.0217600000        2.9198200000        8.8267800000
    18    15     5        0.9110000000       -0.6575300000        4.0782800000        8.4527400000
    19    15     2       -0.4610000000        0.5844700000        3.5261100000        7.9337600000
    20    15     3       -0.1380000000       -3.0291800000        3.6121700000        9.3651000000
    21    15     6       -0.5880000000       -0.1784200000        4.5808500000       10.0388800000
    22    15     2       -0.4610000000        1.4398700000        2.5229900000       10.3431800000
    23    15     3       -0.1380000000       -1.7027100000        1.9647700000        9.7497300000
    24    15     5        0.9110000000        1.1984700000        3.9228600000       10.8505800000
    25    15     2       -0.4610000000        2.1337700000        4.8537800000       10.1842800000
    26    15     3       -0.1380000000        2.0969700000        4.1900000000       13.3697800000
    27    15     3       -0.1380000000        0.2615700000        3.0710900000       13.1261800000
    28    15     4        0.3190000000        0.9166700000        4.1045600000       12.6410800000
    29    15     3       -0.1380000000        0.2144600000        5.2637700000       12.8912800000
    30    16     2       -0.4610000000       -3.8524600000       -4.4313700000        7.5633700000
    31    16     3       -0.1380000000       -1.8343300000       -2.0974700000        9.2484600000
    32    16     4        0.3190000000       -1.5215500000       -3.3202700000        8.7782800000
    33    16     5        0.9110000000       -2.8914700000       -4.5009700000        8.6855900000
    34    16     2       -0.4610000000       -3.5261500000       -4.6834700000       10.0117800000
    35    16     3       -0.1380000000       -0.8848200000       -3.2244700000        7.5824800000
    36    16     6       -0.5880000000       -2.0005100000       -5.9188700000        8.1618200000
    37    16     2       -0.4610000000       -3.4743100000       -7.5302700000        9.3002100000
    38    16     3       -0.1380000000       -0.5904500000       -3.8392700000        9.7177200000
    39    16     5        0.9110000000       -2.0641200000       -7.4859700000        8.9275500000
    40    16     2       -0.4610000000       -1.4709100000       -8.5116700000        8.1599800000
    41    16     3       -0.1380000000        0.2140400000       -7.3028700000       10.1739800000
    42    16     3       -0.1380000000       -1.3401600000       -8.4190700000       11.2996800000
    43    16     4        0.3190000000       -1.0930800000       -7.3490700000       10.5017800000
    44    16     3       -0.1380000000       -1.3638100000       -6.2356700000       11.1442800000
    45    17     2       -0.4610000000       -3.5083000000       -6.5439700000       -0.7988200000
    46    17     3       -0.1380000000       -1.3111300000       -9.7893700000       -0.2009200000
    47    17     4        0.3190000000       -1.6778700000       -8.7876700000       -1.0203200000
    48    17     5        0.9110000000       -2.7968100000       -7.6693700000       -0.1545200000
    49    17     2       -0.4610000000       -2.1249500000       -7.2612700000        1.0207400000
    50    17     3       -0.1380000000       -0.5635300000       -8.1093700000       -1.2929200000
    51    17     6       -0.5880000000       -4.1850800000       -8.7203700000        0.2742200000
    52    17     2       -0.4610000000       -5.2959900000      -10.1215300000        1.8876000000
    53    17     3       -0.1380000000       -2.1044200000       -9.3919700000       -2.1612200000
    54    17     5        0.9110000000       -5.0319800000       -8.6835700000        1.8001800000
    55    17     2       -0.4610000000       -4.0529300000       -8.2436700000        2.7363000000
    56    17     3       -0.1380000000       -6.9970100000       -7.3065700000        3.0645200000
    57    17     3       -0.1380000000       -7.4533300000       -8.1006700000        1.0558600000
    58    17     4        0.3190000000       -6.4393000000       -7.5316700000        1.7925600000
    59    17     3       -0.1380000000       -6.0516200000       -6.3997700000        1.2614100000
    60    18     2       -0.4610000000       -5.6657400000        2.9048100000        0.2932000000
    61    18     3       -0.1380000000       -7.2213800000        0.3601900000       -0.9642200000
    62    18     4        0.3190000000       -6.0675200000        0.8263000000       -1.4171200000
    63    18     5        0.9110000000       -5.7409600000        2.5829000000       -1.1539200000
    64    18     2       -0.4610000000       -6.5562400000        3.4900100000       -1.8979200000
    65    18     3       -0.1380000000       -5.1857600000        0.1807800000       -0.7093200000
    66    18     6       -0.5880000000       -4.1194300000        2.7797100000       -1.8165200000
    67    18     2       -0.4610000000       -4.2440600000        5.3053600000       -1.3096200000
    68    18     3       -0.1380000000       -5.7723600000        0.5671900000       -2.6440200000
    69    18     5        0.9110000000       -3.5779900000        4.3465300000       -2.2099200000
    70    18     2       -0.4610000000       -2.1519400000        4.1279700000       -1.9740200000
    71    18     3       -0.1380000000       -3.1918400000        3.5811800000       -4.6116200000
    72    18     3       -0.1380000000       -3.0745100000        5.7818000000       -4.3535200000
    73    18     4        0.3190000000       -3.7120600000        4.6671600000       -3.9794200000
    74    18     3       -0.1380000000       -5.0434500000        4.6665200000       -4.2478200000
    75    19     2       -0.4610000000        4.3701700000        6.3332700000       -2.7424200000
    76    19     3       -0.1380000000        5.0568700000        3.3386700000       -2.7125200000
    77    19     4        0.3190000000        5.9373700000        4.2027900000       -2.2503200000
    78    19     5        0.9110000000        5.6986700000        5.8459200000       -3.0775200000
    79    19     2       -0.4610000000        6.3722700000        6.1313100000       -4.3800200000
    80    19     3       -0.1380000000        5.7968700000        4.2691200000       -0.9239200000
    81    19     6       -0.5880000000        6.7821700000        6.7813700000       -2.0853200000
    82    19     2       -0.4610000000        7.3158000000        9.3071300000       -2.0855200000
    83    19     3       -0.1380000000        7.1156700000        3.7101100000       -2.6181200000
    84    19     5        0.9110000000        6.2076700000        8.4325300000       -1.5843200000
    85    19     2       -0.4610000000        4.9074700000        8.8220300000       -2.1287200000
    86    19     3       -0.1380000000        5.1087700000        7.3858300000        0.5977000000
    87    19     3       -0.1380000000        6.1992700000        9.2356300000        1.0274400000
    88    19     4        0.3190000000        6.1966700000        8.0905300000        0.3053300000
    89    19     3       -0.1380000000        7.2486400000        7.3549300000        0.7857500000
    90    20     2       -0.4610000000        5.5667700000        0.0052200000        3.6740400000
    91    20     3       -0.1380000000        7.0069700000        1.9393600000        1.3521500000
    92    20     4        0.3190000000        6.7156700000        2.2178800000        2.6596500000
    93    20     5        0.9110000000        5.1966700000        1.3199200000        3.2319400000
    94    20     2       -0.4610000000        4.1885700000        1.5983400000        2.2364800000
    95    20     3       -0.1380000000        7.8160300000        1.8462200000        3.3790600000
    96    20     6       -0.5880000000        4.5121700000        1.9543700000        4.7835800000
    97    20     2       -0.4610000000        2.9715700000        2.1719400000        6.4222100000
    98    20     3       -0.1380000000        6.4395700000        3.6112000000        2.7555600000
    99    20     5        0.9110000000        2.7688700000        2.0501400000        5.0296800000
   100    20     2       -0.4610000000        2.2470700000        3.0629500000        4.1244300000
   101    20     3       -0.1380000000        2.0923700000       -0.3041700000        5.6384400000
   102    20     3       -0.1380000000        2.6987700000       -0.2215200000        3.6618900000
   103    20     4        0.3190000000        2.0347700000        0.4479000000        4.6178300000
   104    20     3       -0.1380000000        0.6972700000        0.6624100000        4.3373100000
   105    21     2       -0.4610000000        3.8774700000       -4.6965700000       -1.6562200000
   106    21     3       -0.1380000000        2.7836700000       -3.7918700000        1.9170500000
   107    21     4        0.3190000000        3.5496700000       -3.7403700000        0.7820800000
   108    21     5        0.9110000000        3.0375700000       -4.9132700000       -0.5165200000
   109    21     2       -0.4610000000        1.6255700000       -4.8245700000       -0.7217200000
   110    21     3       -0.1380000000        3.4874700000       -2.4540800000        0.2965000000
   111    21     6       -0.5880000000        3.0978700000       -6.5015700000        0.0999600000
   112    21     2       -0.4610000000        1.0847700000       -6.0159700000        1.7687600000
   113    21     3       -0.1380000000        4.7934700000       -4.0176700000        1.1882800000
   114    21     5        0.9110000000        2.1148700000       -7.0464700000        1.4860800000
   115    21     2       -0.4610000000        1.5407700000       -8.3208700000        1.0421700000
   116    21     3       -0.1380000000        3.8681700000       -8.3616700000        3.0529000000
   117    21     3       -0.1380000000        2.5978700000       -7.0281700000        3.9577000000
   118    21     4        0.3190000000        3.3135700000       -7.1841700000        2.8305000000
   119    21     3       -0.1380000000        4.3027700000       -6.2989700000        2.8096400000
   120    22     2       -0.4610000000        5.4119700000       -5.5384700000        8.2500000000
   121    22     3       -0.1380000000        2.4464700000       -6.3630700000        7.9769500000
   122    22     4        0.3190000000        2.9589700000       -5.3693700000        7.1899600000
   123    22     5        0.9110000000        4.7671700000       -5.3941700000        6.9184500000
   124    22     2       -0.4610000000        5.2686700000       -4.5304700000        5.8759100000
   125    22     3       -0.1380000000        2.2445700000       -5.3661700000        6.0500600000
   126    22     6       -0.5880000000        5.0850700000       -6.9033700000        6.2169100000
   127    22     2       -0.4610000000        4.1702700000       -8.2022700000        8.3658500000
   128    22     3       -0.1380000000        2.6748700000       -4.2204700000        7.7913400000
   129    22     5        0.9110000000        5.0843700000       -8.3597700000        7.2025700000
   130    22     2       -0.4610000000        4.7614700000       -9.3813700000        6.1970000000
   131    22     3       -0.1380000000        6.7436700000       -8.1233700000        9.1695200000
   132    22     3       -0.1380000000        7.5820600000       -7.9364700000        7.2773900000
   133    22     4        0.3190000000        6.7103700000       -8.6493700000        7.9229500000
   134    22     3       -0.1380000000        7.0518700000       -9.9681200000        7.9626100000
   135    23     2       -0.4610000000       -4.1889100000       -4.5243700000        3.3624100000
   136    23     3       -0.1380000000       -7.2271300000       -4.3624700000        2.6539000000
   137    23     4        0.3190000000       -6.6204500000       -3.3842700000        3.2770200000
   138    23     5        0.9110000000       -5.2947000000       -4.0487700000        4.2367800000
   139    23     2       -0.4610000000       -5.7957500000       -5.0431700000        5.1866700000
   140    23     3       -0.1380000000       -6.0185900000       -2.6253000000        2.3365900000
   141    23     6       -0.5880000000       -4.5910300000       -2.7873100000        5.1366500000
   142    23     2       -0.4610000000       -1.9422500000       -2.8764900000        5.0710400000
   143    23     3       -0.1380000000       -7.5997700000       -2.7372800000        4.0295100000
   144    23     5        0.9110000000       -3.1382700000       -2.0164500000        4.6600200000
   145    23     2       -0.4610000000       -3.4405000000       -1.7407200000        3.2128900000
   146    23     3       -0.1380000000       -1.9288000000        0.1941800000        5.3630700000
   147    23     3       -0.1380000000       -3.3818000000       -0.5877000000        6.8945100000
   148    23     4        0.3190000000       -3.0902700000       -0.4841900000        5.5124600000
   149    23     3       -0.1380000000       -4.0314500000        0.2713800000        5.0074400000
   150    24     2       -0.4610000000       -0.3410500000        6.2290900000        2.4477700000
   151    24     3       -0.1380000000        1.0835700000        7.6817300000        5.6856300000
   152    24     4        0.3190000000        0.9261700000        6.7809400000        4.7351400000
   153    24     5        0.9110000000       -0.4891800000        7.0174200000        3.6465600000
   154    24     2       -0.4610000000       -0.6209700000        8.4019300000        3.2442000000
   155    24     3       -0.1380000000        2.0741700000        6.6009800000        4.0866000000
   156    24     6       -0.5880000000       -1.9528600000        6.3334200000        4.4131000000
   157    24     2       -0.4610000000       -3.4953600000        4.3141900000        5.0574100000
   158    24     3       -0.1380000000        0.8375700000        5.6486000000        5.4976200000
   159    24     5        0.9110000000       -2.5779100000        4.7049400000        3.9834000000
   160    24     2       -0.4610000000       -2.9926400000        4.8490500000        2.6129700000
   161    24     3       -0.1380000000       -0.4120000000        3.7222600000        2.9873900000
   162    24     3       -0.1380000000       -1.9121300000        2.2453600000        3.5544100000
   163    24     4        0.3190000000       -1.3310200000        3.3909200000        3.9273600000
   164    24     3       -0.1380000000       -0.8070100000        3.1059100000        5.1391200000
   165    25     2       -0.4610000000       -5.4334100000       -6.3743700000       -4.8678200000
   166    25     3       -0.1380000000       -6.3788500000       -7.8703700000       -1.4388200000
   167    25     4        0.3190000000       -5.9847800000       -7.9641700000       -2.7351200000
   168    25     5        0.9110000000       -5.7814800000       -6.2867700000       -3.4862200000
   169    25     2       -0.4610000000       -5.1735600000       -5.3732700000       -2.4892200000
   170    25     3       -0.1380000000       -4.8714400000       -8.7624700000       -2.7541200000
   171    25     6       -0.5880000000       -7.3906600000       -5.6984700000       -3.6155200000
   172    25     2       -0.4610000000       -6.6645300000       -3.2998700000       -3.9492200000
   173    25     3       -0.1380000000       -6.8635100000       -8.6904700000       -3.4477200000
   174    25     5        0.9110000000       -7.7739000000       -4.0509700000       -3.3846200000
   175    25     2       -0.4610000000       -9.1737500000       -4.0147700000       -3.9027200000
   176    25     3       -0.1380000000       -9.2051300000       -4.0668700000       -1.2725200000
   177    25     3       -0.1380000000       -7.5152600000       -2.6738500000       -1.2239200000
   178    25     4        0.3190000000       -7.8647500000       -3.9036700000       -1.5753200000
   179    25     3       -0.1380000000       -7.2242000000       -4.8473700000       -0.8913200000
   180    26     2       -0.4610000000       -5.5751900000        4.7978100000        8.1980700000
   181    26     3       -0.1380000000       -6.1856600000        8.3400300000        9.6829900000
   182    26     4        0.3190000000       -5.6282200000        7.0920300000        9.9285700000
   183    26     5        0.9110000000       -5.3843900000        6.2250800000        8.3089500000
   184    26     2       -0.4610000000       -4.1038300000        6.7247500000        7.7235600000
   185    26     3       -0.1380000000       -4.4993800000        7.4208300000       10.5624800000
   186    26     6       -0.5880000000       -6.7406000000        6.6909400000        7.3645800000
   187    26     2       -0.4610000000       -6.4446600000        8.6848300000        5.7233000000
   188    26     3       -0.1380000000       -6.4574500000        6.4178900000       10.7275800000
   189    26     5        0.9110000000       -6.5837800000        7.2161300000        5.7073300000
   190    26     2       -0.4610000000       -5.4787100000        6.4673000000        5.1188900000
   191    26     3       -0.1380000000       -7.9076400000        6.6384600000        3.5259600000
   192    26     3       -0.1380000000       -9.1537500000        7.3918300000        5.0228400000
   193    26     4        0.3190000000       -8.0494400000        6.6031700000        4.8249100000
   194    26     3       -0.1380000000       -8.4049000000        5.3623300000        5.2284700000
   195    27     2       -0.4610000000        5.1352700000        0.9897900000       -4.9493200000
   196    27     3       -0.1380000000        5.1869700000       -0.2170100000       -1.2820200000
   197    27     4        0.3190000000        5.8124700000       -0.1772800000       -2.5078200000
   198    27     5        0.9110000000        4.6042700000        0.2924900000       -3.8048200000
   199    27     2       -0.4610000000        3.4829700000        0.9592400000       -3.1971200000
   200    27     3       -0.1380000000        6.8718700000        0.6526700000       -2.3460200000
   201    27     6       -0.5880000000        3.9345700000       -1.1227100000       -4.5724200000
   202    27     2       -0.4610000000        2.5999700000       -3.1269700000       -4.3910200000
   203    27     3       -0.1380000000        6.2447700000       -1.4464800000       -2.7269200000
   204    27     5        0.9110000000        2.4125700000       -1.7703900000       -3.8879200000
   205    27     2       -0.4610000000        2.5182700000       -1.6560900000       -2.4362200000
   206    27     3       -0.1380000000        0.7887700000       -1.4612600000       -5.8338200000
   207    27     3       -0.1380000000        1.2787700000        0.3727900000       -4.8256200000
   208    27     4        0.3190000000        1.0650700000       -0.9290800000       -4.5920200000
   209    27     3       -0.1380000000       -0.0443000000       -1.0211300000       -3.8782200000
   210    28     2       -0.4610000000        7.4642700000       -1.5877500000       -7.8266700000
   211    28     3       -0.1380000000        8.7017100000       -0.8486700000       -5.2576200000
   212    28     4        0.3190000000        9.4210500000       -0.5160500000       -6.2985200000
   213    28     5        0.9110000000        8.4279600000       -0.4431300000       -7.7536300000
   214    28     2       -0.4610000000        9.2476000000       -0.0688400000       -8.8991800000
   215    28     3       -0.1380000000       10.2131900000        0.6264600000       -6.1232200000
   216    28     6       -0.5880000000        7.2124100000        0.7923300000       -7.5520900000
   217    28     2       -0.4610000000        8.6890500000        2.5783100000       -8.7395800000
   218    28     3       -0.1380000000       10.3645200000       -1.5122100000       -6.3943200000
   219    28     5        0.9110000000        7.4230400000        2.4539700000       -8.1404900000
   220    28     2       -0.4610000000        6.2471700000        2.8256600000       -8.9729000000
   221    28     3       -0.1380000000        7.9382300000        2.6809600000       -5.5587200000
   222    28     3       -0.1380000000        6.2447700000        3.7449700000       -6.2391200000
   223    28     4        0.3190000000        7.4584800000        3.4564800000       -6.6003200000
   224    28     3       -0.1380000000        8.2401600000        4.5164500000       -6.6492200000
   225    29     7       -0.8200000000        7.5951900000       -8.1062700000       -4.8607200000
   226    29     8        0.4100000000        7.8618900000       -8.7286700000       -5.5660200000
   227    29     8        0.4100000000        7.6597900000       -8.6738700000       -4.0319200000
   228    30     7       -0.8200000000       -2.7776200000       -4.0350700000       -3.7437200000
   229    30     8        0.4100000000       -3.2795300000       -4.3940700000       -4.5332200000
   230    30     8        0.4100000000       -2.7984400000       -2.9565700000       -3.8070200000
   231    31     7       -0.8200000000       -1.0373600000       -4.3931700000        2.3144700000
   232    31     8        0.4100000000       -0.0459100000       -4.5611700000        2.0661000000
   233    31     8        0.4100000000       -1.1497700000       -3.8193700000        3.2116100000
   234    32     7       -0.8200000000       -0.8054800000        0.2277300000        1.8204600000
   235    32     8        0.4100000000       -1.3883600000       -0.4583300000        2.3207200000
   236    32     8        0.4100000000       -0.9150000000        1.1024200000        2.4028600000
   237    33     7       -0.8200000000       -6.5073400000        4.1882000000        2.6055200000
   238    33     8        0.4100000000       -6.3903700000        5.1870100000        2.6188900000
   239    33     8        0.4100000000       -5.8857700000        3.7040000000        1.9370700000
   240    34     7       -0.8200000000       -1.4313400000       -4.1522700000       -0.6913200000
   241    34     8        0.4100000000       -0.6392800000       -4.8589700000       -0.6961200000
   242    34     8        0.4100000000       -1.5849200000       -3.9460700000        0.3074900000
   243    35     7       -0.8200000000        5.4703700000        5.1025800000        5.1651800000
   244    35     8        0.4100000000        4.9947700000        5.9616700000        5.4917300000
   245    35     8        0.4100000000        6.4582700000        5.1575700000        4.8713600000
   246    36     7       -0.8200000000       -7.3001700000        5.8527300000       -1.2374200000
   247    36     8        0.4100000000       -7.2308400000        4.9273300000       -1.6384200000
   248    36     8        0.4100000000       -8.1661300000        6.3678000000       -1.4241200000
   249    37     7       -0.8200000000       -5.5648900000        1.9825000000        7.6949000000
   250    37     8        0.4100000000       -5.2699300000        2.2660500000        8.5905100000
   251    37     8        0.4100000000       -6.5526900000        1.5979700000        7.7731200000
   252    38     7       -0.8200000000        2.0656700000       -7.5665700000       -2.4433200000
   253    38     8        0.4100000000        2.2446700000       -7.1112700000       -1.5732200000
   254    38     8        0.4100000000        2.9244700000       -8.0930700000       -2.7174200000
   255    39     7       -0.8200000000       -6.1979000000       -2.5886700000        7.6024300000
   256    39     8        0.4100000000       -6.1675100000       -1.5483500000        7.4514500000
   257    39     8        0.4100000000       -5.3891100000       -3.0818700000        7.2698600000
   258    40     7       -0.8200000000       -6.5203800000       -4.2597700000       -7.0625400000
   259    40     8        0.4100000000       -6.3314400000       -3.5740700000       -7.8268700000
   260    40     8        0.4100000000       -6.4159300000       -3.8163700000       -6.1566200000
   261    41     7       -0.8200000000       -0.7645000000        1.9994600000       -0.7181200000
   262    41     8        0.4100000000       -1.2435000000        2.3428800000       -1.5473200000
   263    41     8        0.4100000000       -0.5558800000        2.8028000000       -0.1944200000
   264    42     7       -0.8200000000        8.4249100000       -4.2198700000        6.5753100000
   265    42     8        0.4100000000        9.0075000000       -5.0679700000        6.3935700000
   266    42     8        0.4100000000        9.0236800000       -3.3744700000        6.7691300000
   267    43     7       -0.8200000000        7.8135600000       -5.3550700000       -6.9381200000
   268    43     8        0.4100000000        7.3209500000       -5.1590700000       -7.8032700000
   269    43     8        0.4100000000        8.7274100000       -4.9312700000       -6.9908200000
   270    44     7       -0.8200000000       -6.9987100000        2.8210200000        5.2139100000
   271    44     8        0.4100000000       -7.6067200000        2.6227300000        5.9679400000
   272    44     8        0.4100000000       -7.5221300000        3.2299700000        4.4560900000
   273    45     7       -0.8200000000       -6.3106200000       -6.5802700000        7.7179900000
   274    45     8        0.4100000000       -6.8456700000       -7.4001700000        7.2888600000
   275    45     8        0.4100000000       -5.7453200000       -6.3120700000        6.9522800000
   276    46     7       -0.8200000000       -3.4818900000       -8.3266700000        5.5796000000
   277    46     8        0.4100000000       -3.8280200000       -8.5312700000        4.5787300000
   278    46     8        0.4100000000       -3.6374100000       -7.3051700000        5.8121000000
   279    47     7       -0.8200000000       -2.8330300000        0.2181600000       -2.8201200000
   280    47     8        0.4100000000       -2.5804100000        1.1842200000       -3.1809200000
   281    47     8        0.4100000000       -3.5123800000        0.4851300000       -2.1170200000
   282    48     7       -0.8200000000        5.1420700000       -4.9576700000       -4.1933200000
   283    48     8        0.4100000000        5.9270700000       -4.2720700000       -4.1642200000
   284    48     8        0.4100000000        4.9453700000       -5.1668700000       -3.2265200000
   285    49     7       -0.8200000000        0.6051700000        0.3188500000       -8.1861900000
   286    49     8        0.4100000000        0.0001500000        0.8403200000       -7.5696200000