LAMMPS data file via write_data, version 3 Mar 2020, timestep = 10000000

341 atoms
8 atom types
274 bonds
5 bond types
389 angles
8 angle types
420 dihedrals
6 dihedral types

0.0000000000000000e+00 1.6907299999999999e+01 xlo xhi
0.0000000000000000e+00 1.6920700000000000e+01 ylo yhi
0.0000000000000000e+00 1.6929800000000000e+01 zlo zhi

Masses

1 6.941
2 16
3 19
4 12.01
5 32.06
6 14.01
7 16
8 1.008

Pair Coeffs # lj/cut/coul/long

1 0.0182661 2.126
2 0.209859 2.96
3 0.0609584 3.118
4 0.109326 3.4
5 0.249833 3.564
6 0.169886 3.25
7 0.155323 3.165
8 0 0

Bond Coeffs # harmonic

1 492.67 1.466
2 363.556 1.344
3 248.733 1.782
4 256.929 1.752
5 529.23 1.012

Angle Coeffs # harmonic

1 41.2526 108.48
2 45.27 121.88
3 43.0716 107.06
4 81.1647 109.67
5 71.2115 107.16
6 39.3938 103.12
7 109.646 119.18
8 37.9249 113.24

Dihedral Coeffs # charmm

1 0.143897 3 0 0
2 0.143897 3 0 0
3 0.499666 3 180 0
4 6.79545 1 180 0
5 0.499666 3 180 0
6 6.79545 1 180 0

Atoms # full

21 15 6 -5.8799999999999997e-01 3.7180153540931893e+00 1.8087170708191542e+00 6.7516038150984397e+00 1 0 -2
18 15 5 9.1100000000000003e-01 3.4322035729848039e+00 3.0457469441993608e+00 5.5901323600853816e+00 1 0 -2
24 15 5 9.1100000000000003e-01 4.8502475568873979e+00 1.9711232407533517e+00 8.0512579053897806e+00 1 0 -2
15 15 2 -4.6100000000000002e-01 4.4771631821930349e+00 4.0437715627819744e+00 5.9189593917385848e+00 1 0 -2
155 24 3 -1.3800000000000001e-01 6.2173452038604027e-01 1.4676277129052504e+00 7.4582362772979682e-01 0 0 1
17 15 4 3.1900000000000001e-01 1.7907638021078811e+00 3.6112220189060813e+00 5.9863517514424895e+00 1 0 -2
20 15 3 -1.3800000000000001e-01 1.5289909129485098e+00 3.4881334506389967e+00 7.3244236064786747e+00 1 0 -2
58 17 4 3.1900000000000001e-01 5.6949723381896494e-02 6.0389044331342348e+00 1.0593582322360842e+00 -1 -1 -1
19 15 2 -4.6100000000000002e-01 3.5088852386800067e+00 2.2775688685861155e+00 4.3512889710449896e+00 1 0 -2
289 50 8 4.0999999999999998e-01 5.4418621490237014e+00 5.2801998956322009e+00 5.6697335409420697e+00 -4 5 2
152 24 4 3.1900000000000001e-01 1.3817674465023766e-01 4.3303862068043331e-01 3.9674775817222889e-02 0 0 1
23 15 3 -1.3800000000000001e-01 7.5336774833719555e-01 2.8326909975363845e+00 5.5073456848932496e+00 1 0 -2
68 18 3 -1.3800000000000001e-01 4.6529522955706035e+00 8.4665129754064317e-01 2.0847461314430327e-01 0 0 0
16 15 3 -1.3800000000000001e-01 1.5949789890683259e+00 4.9018021130303184e+00 5.7529492898407097e+00 1 0 -2
212 28 4 3.1900000000000001e-01 4.4801550371784478e+00 8.4457170011406859e+00 3.1528992990807065e+00 -1 0 1
177 25 3 -1.3800000000000001e-01 6.8009710179615768e-01 6.8832090877363123e+00 7.9949155257907529e+00 -1 0 -1
218 28 3 -1.3800000000000001e-01 4.7336303767471648e+00 7.0923964328502542e+00 2.9792776035329940e+00 -1 0 1
179 25 3 -1.3800000000000001e-01 2.7533822506888503e+00 7.1240778588091276e+00 8.0109573405602550e+00 -1 0 -1
293 51 8 4.0999999999999998e-01 3.6686465373686015e+00 3.8657855498256810e-01 1.6636708700596012e+00 -2 1 -3
61 18 3 -1.3800000000000001e-01 5.0492668985344640e+00 2.8867145364203868e+00 7.2002681152117032e-01 0 0 0
57 17 3 -1.3800000000000001e-01 1.3529562435757865e+00 6.2518133801716855e+00 7.9334291626741649e-01 -1 -1 -1
292 51 8 4.0999999999999998e-01 3.3648654711937631e+00 8.9849673038901434e-01 3.2298956126274043e+00 -2 1 -3
291 51 7 -8.1999999999999995e-01 3.4449100064663702e+00 7.1198952074175148e-02 2.6006558571352913e+00 -2 1 -3
288 50 7 -8.1999999999999995e-01 6.0948863351978302e+00 6.1167933997762969e+00 5.9990967237185213e+00 -4 5 2
321 61 7 -8.1999999999999995e-01 7.6591655643657210e+00 8.3382464989118255e+00 6.8605720686216225e+00 -3 1 1
290 50 8 4.0999999999999998e-01 6.8125156038595858e+00 6.2375984100747406e+00 5.3427763409257958e+00 -4 5 2
323 61 8 4.0999999999999998e-01 6.6989088841522193e+00 7.9436812253991267e+00 6.8207353372701789e+00 -3 1 1
222 28 3 -1.3800000000000001e-01 6.9247897657772191e+00 6.0283956742572338e+00 1.7463594146914502e-01 -1 0 1
322 61 8 4.0999999999999998e-01 8.2155302282088947e+00 7.4912908561401066e+00 6.8370700393094550e+00 -3 1 1
280 47 8 4.0999999999999998e-01 5.7983303135065469e+00 5.9240912303461144e+00 7.7249148967664523e+00 -1 -3 0
339 67 7 -8.1999999999999995e-01 9.7670960723493074e+00 8.3289404448533801e+00 4.4658396914782257e+00 -4 0 -4
28 15 4 3.1900000000000001e-01 6.5041727986692086e+00 1.7235730868564272e+00 7.2788897440306215e+00 1 0 -2
26 15 3 -1.3800000000000001e-01 6.8932596784706686e+00 2.9204185967203706e+00 6.7165983222545957e+00 1 0 -2
27 15 3 -1.3800000000000001e-01 6.4388485972501002e+00 6.4785098526061391e-01 6.4052073331758477e+00 1 0 -2
136 23 3 -1.3800000000000001e-01 8.1527568835801105e+00 3.3564673832186482e+00 4.9043968382175707e-01 -2 -1 -1
29 15 3 -1.3800000000000001e-01 7.3565243216042600e+00 1.3959076173844895e+00 8.3559569190457808e+00 1 0 -2
237 33 7 -8.1999999999999995e-01 1.0856814373061711e+01 7.7035486824459163e+00 1.5287574979238887e+00 3 -1 -2
86 19 3 -1.3800000000000001e-01 9.2261698996944936e+00 4.0684336510370880e+00 3.6850440790316585e+00 0 -1 -1
87 19 3 -1.3800000000000001e-01 9.8533300187286699e+00 3.0718154025849000e+00 5.5631022750361545e+00 0 -1 -1
88 19 4 3.1900000000000001e-01 1.0303143377717442e+01 3.5385131524908626e+00 4.3968620902947597e+00 0 -1 -1
112 21 2 -4.6100000000000002e-01 9.1873111412225175e+00 5.8910753543613188e+00 7.5643194670367606e+00 -1 0 -1
341 67 8 4.0999999999999998e-01 1.0553440046191824e+01 7.8090214011674437e+00 4.9306708144935056e+00 -4 0 -4
89 19 3 -1.3800000000000001e-01 1.0708397104546059e+01 2.4545640730650815e+00 3.7758904565809681e+00 0 -1 -1
264 42 7 -8.1999999999999995e-01 1.4536248728119340e+01 2.8430073575287538e+00 2.6365975653502658e+00 1 3 0
233 31 8 4.0999999999999998e-01 1.1706177460306886e+01 7.9984667818064157e+00 6.5509221978810519e+00 1 -2 3
54 17 5 9.1100000000000003e-01 1.5990146256791256e+01 7.2946816541316126e+00 1.6886246178004233e-01 -2 -1 -1
79 19 2 -4.6100000000000002e-01 1.5040077253307821e+01 3.6833307498834138e+00 5.6178893300888841e+00 0 -1 -1
56 17 3 -1.3800000000000001e-01 1.6726336942581849e+01 6.1416050349998832e+00 2.3617633303518453e+00 -2 -1 -1
78 19 5 9.1100000000000003e-01 1.4222971682621226e+01 4.7416765813350796e+00 6.1776395460552056e+00 0 -1 -1
310 57 8 4.0999999999999998e-01 1.5743445955265171e+01 2.2123244313716897e+00 6.9613203899277316e+00 1 0 1
238 33 8 4.0999999999999998e-01 1.1289509756565410e+01 6.8034187245808262e+00 1.7907485364977018e+00 3 -1 -2
5 5 1 8.0000000000000004e-01 1.3548035333753303e+01 2.8634392456670690e+00 7.9829336338002876e-01 -2 1 0
84 19 5 9.1100000000000003e-01 1.1694186029903582e+01 4.7997538907799218e+00 4.6286529782967323e+00 0 -1 -1
59 17 3 -1.3800000000000001e-01 1.6560239985474961e+01 4.7832694954811519e+00 7.3376763913202370e-01 -2 -1 -1
309 57 7 -8.1999999999999995e-01 1.5923146704402365e+01 1.9593748463643572e+00 7.9323253616106530e+00 1 0 1
80 19 3 -1.3800000000000001e-01 1.5811322780014139e+01 6.8250191185193687e+00 5.7869601254302117e+00 0 -1 -1
266 42 8 4.0999999999999998e-01 1.4300410181710038e+01 3.7950147910503156e+00 3.0489819549360462e+00 1 3 0
239 33 8 4.0999999999999998e-01 1.1593125311535518e+01 8.1781444574217161e+00 1.0977148827957957e+00 3 -1 -2
83 19 3 -1.3800000000000001e-01 1.3769150539599321e+01 7.3887024171312552e+00 5.9513761779635432e+00 0 -1 -1
77 19 4 3.1900000000000001e-01 1.4545151778936322e+01 6.3833825046653887e+00 5.4798666486562064e+00 0 -1 -1
82 19 2 -4.6100000000000002e-01 1.1386537766581014e+01 6.0851560572977732e+00 5.2827596773733196e+00 0 -1 -1
265 42 8 4.0999999999999998e-01 1.5402236493537096e+01 2.5127866285850242e+00 2.9945547117111837e+00 1 3 0
76 19 3 -1.3800000000000001e-01 1.4575262865955862e+01 6.4666660575605190e+00 4.1459803473435066e+00 0 -1 -1
139 23 2 -4.6100000000000002e-01 1.1532912348737007e+01 2.5587617252928800e+00 6.0897842200863705e-01 -2 -1 -1
75 19 2 -4.6100000000000002e-01 1.4189994958722171e+01 4.8087235626653255e+00 7.6199043098378807e+00 0 -1 -1
297 53 7 -8.1999999999999995e-01 1.2976369875644572e+01 8.7146507049593314e-01 6.9009732171096543e+00 0 0 -4
299 53 8 4.0999999999999998e-01 1.2843353424535323e+01 1.7562500696840979e+00 6.3627582226181030e+00 0 0 -4
85 19 2 -4.6100000000000002e-01 1.2567186266744326e+01 4.8666610955631917e+00 3.4262570138261688e+00 0 -1 -1
81 19 6 -5.8799999999999997e-01 1.2707150546988562e+01 3.9730108391350707e+00 5.7957026677116925e+00 0 -1 -1
298 53 8 4.0999999999999998e-01 1.2505204591988674e+01 5.8081071545535941e-02 6.5067684641641677e+00 0 0 -4
66 18 6 -5.8799999999999997e-01 4.7429357941554011e+00 3.9981941254990936e+00 1.4554617303591320e+01 0 0 -1
69 18 5 9.1100000000000003e-01 5.0094907372725803e+00 3.8613892977329840e+00 1.2778298500060219e+01 0 0 -1
64 18 2 -4.6100000000000002e-01 3.1700566334189832e+00 1.9589538029407978e+00 1.4404043378793819e+01 0 0 -1
70 18 2 -4.6100000000000002e-01 5.6181523825144470e+00 5.1111187263215045e+00 1.2389561864213425e+01 0 0 -1
67 18 2 -4.6100000000000002e-01 3.6676472134199711e+00 3.7099912191196749e+00 1.2241170199182084e+01 0 0 -1
276 46 7 -8.1999999999999995e-01 1.1621382549858075e+00 1.1177397165720215e+00 9.3356737336548790e+00 -4 -3 1
278 46 8 4.0999999999999998e-01 3.9991357648737719e-01 1.2425915333059785e+00 8.5969817044102346e+00 -4 -3 1
174 25 5 9.1100000000000003e-01 1.7935054477012808e+00 6.4850636314926868e+00 1.0362219526556327e+01 -1 0 -1
175 25 2 -4.6100000000000002e-01 2.0599334231495283e+00 5.0723994826203853e+00 1.0014240230069730e+01 -1 0 -1
333 65 7 -8.1999999999999995e-01 1.0671091961831718e+00 3.2662242952317637e+00 1.2601103957630150e+01 -5 0 -3
63 18 5 9.1100000000000003e-01 3.7901552073557827e+00 2.7941780214883951e+00 1.5429980912253937e+01 0 0 -1
334 65 8 4.0999999999999998e-01 6.3979368609197673e-01 2.5088399897496219e+00 1.3174152079822928e+01 -5 0 -3
60 18 2 -4.6100000000000002e-01 2.8008697515244187e+00 3.6857276648341157e+00 1.6125170746280627e+01 0 0 -1
335 65 8 4.0999999999999998e-01 2.0412407587415160e+00 3.4941699091700742e+00 1.2799230819386098e+01 -5 0 -3
171 25 6 -5.8799999999999997e-01 4.7370096059764888e-01 6.3011896898379325e+00 1.1477489762558632e+01 -1 0 -1
253 38 8 4.0999999999999998e-01 1.6868674674081070e+00 5.2149426039655449e+00 1.5297944189737692e+01 0 -1 -3
252 38 7 -8.1999999999999995e-01 1.1057211067181705e+00 5.5266337070193083e+00 1.4515388903684133e+01 0 -1 -3
325 62 8 4.0999999999999998e-01 4.0556852510291321e+00 6.2605867313208243e+00 1.4140477928824650e+01 5 3 0
172 25 2 -4.6100000000000002e-01 2.4652300426007736e+00 7.3179443572387068e+00 1.1335527511282612e+01 -1 0 -1
254 38 8 4.0999999999999998e-01 8.5574532979428131e-01 6.4846646542313708e+00 1.4859872826414449e+01 0 -1 -3
324 62 7 -8.1999999999999995e-01 3.9514278163134753e+00 7.2195034957490574e+00 1.4272760476258211e+01 5 3 0
326 62 8 4.0999999999999998e-01 3.9309564848017504e+00 7.3712696299840212e+00 1.5267508627020433e+01 5 3 0
14 14 1 8.0000000000000004e-01 1.4560464388814582e+00 2.9076671877006453e+00 1.0587922620269483e+01 2 0 0
62 18 4 3.1900000000000001e-01 4.9614530041040066e+00 2.0624620334875869e+00 1.6562725498850011e+01 0 0 -1
275 45 8 4.0999999999999998e-01 2.5864011817234664e+00 8.0594750220622335e-01 1.3199347463112803e+01 1 0 -3
277 46 8 4.0999999999999998e-01 1.9124932317328092e+00 6.0764510336958910e-01 8.9579540102353938e+00 -4 -3 1
178 25 4 3.1900000000000001e-01 1.7066369162012642e+00 7.4014263063181733e+00 8.7545727244295009e+00 -1 0 -1
281 47 8 4.0999999999999998e-01 5.1316158375380203e+00 5.1540006927539688e+00 9.1041690456294191e+00 -1 -3 0
273 45 7 -8.1999999999999995e-01 1.9460543422217189e+00 3.4466123531521942e-01 1.2565159338909206e+01 1 0 -3
25 15 2 -4.6100000000000002e-01 4.2973018077985152e+00 8.9077906105468074e-01 8.8450379356662747e+00 1 0 -2
22 15 2 -4.6100000000000002e-01 4.6373769568416279e+00 3.3249918021248184e+00 8.6436513850804513e+00 1 0 -2
260 40 8 4.0999999999999998e-01 4.9660451982588958e+00 1.7820710179218580e-01 1.1372301489684917e+01 3 2 -1
294 52 7 -8.1999999999999995e-01 5.8916069508421280e+00 7.5126153072951869e+00 1.1607999984246586e+01 -1 -1 0
141 23 6 -5.8799999999999997e-01 1.1217294913388780e+01 2.4777380475192463e+00 1.5128445580244772e+01 -2 -1 -2
296 52 8 4.0999999999999998e-01 5.6799663265300246e+00 6.5016355050394550e+00 1.1876961219334957e+01 -1 -1 0
12 12 1 8.0000000000000004e-01 6.6003541208440524e+00 7.6737514485974643e+00 9.6607396452037442e+00 1 0 -2
71 18 3 -1.3800000000000001e-01 6.0078904604809207e+00 1.4351039591746928e+00 1.3315347839597141e+01 0 0 -1
148 23 4 3.1900000000000001e-01 9.7902957370516468e+00 7.9482775582696663e-01 1.3223326540412936e+01 -2 -1 -2
111 21 6 -5.8799999999999997e-01 8.8648877451779473e+00 7.3110404071718156e+00 9.5397868476113192e+00 -1 0 -1
117 21 3 -1.3800000000000001e-01 8.4695186620680563e+00 4.0664110317238826e+00 1.0203194675172965e+01 -1 0 -1
119 21 3 -1.3800000000000001e-01 1.0135800152389729e+01 4.6667200186562985e+00 1.1258665685119920e+01 -1 0 -1
149 23 3 -1.3800000000000001e-01 9.8130201766996539e+00 1.6173744491188766e+00 1.2132853735611619e+01 -2 -1 -2
73 18 4 3.1900000000000001e-01 6.0810229616081557e+00 2.4299530259386417e+00 1.2446278616198768e+01 0 0 -1
74 18 3 -1.3800000000000001e-01 5.7875894685206379e+00 1.8632784565932987e+00 1.1286209450856118e+01 0 0 -1
140 23 3 -1.3800000000000001e-01 8.7230486293869802e+00 3.7611204661362003e+00 1.5241748392905446e+01 -2 -1 -2
72 18 3 -1.3800000000000001e-01 7.3789345493939198e+00 2.7802082451651553e+00 1.2260506354531980e+01 0 0 -1
107 21 4 3.1900000000000001e-01 1.0772086418579756e+01 8.3086242000764141e+00 1.1753996692709325e+01 -1 0 -1
65 18 3 -1.3800000000000001e-01 6.2418198804798184e+00 1.9693266625228882e+00 1.6041447242152483e+01 0 0 -1
221 28 3 -1.3800000000000001e-01 6.6564939999473740e+00 6.7934322720506746e+00 1.5099447978059237e+01 -1 0 0
223 28 4 3.1900000000000001e-01 7.2330227571125487e+00 7.0608099091303931e+00 1.6287151815410848e+01 -1 0 0
116 21 3 -1.3800000000000001e-01 1.0333555297795941e+01 3.4893485309433672e+00 9.4445102601675046e+00 -1 0 -1
114 21 5 9.1100000000000003e-01 9.8675625308251877e+00 5.9943881346509169e+00 8.9270912911044018e+00 -1 0 -1
118 21 4 3.1900000000000001e-01 9.7458193073846306e+00 4.5203838175739062e+00 1.0010332800961407e+01 -1 0 -1
113 21 3 -1.3800000000000001e-01 1.0248935674507447e+01 7.2801443576980427e+00 1.2396735441176144e+01 -1 0 -1
146 23 3 -1.3800000000000001e-01 8.6654365042325221e+00 1.0377322966626119e+00 1.3915215260952397e+01 -2 -1 -2
224 28 3 -1.3800000000000001e-01 8.6223199613423596e+00 7.1561471955695524e+00 1.6221644094851246e+01 -1 0 0
98 20 3 -1.3800000000000001e-01 9.9509983342072204e+00 1.0065107669872986e-01 9.1859275429577814e+00 -1 0 0
137 23 4 3.1900000000000001e-01 9.1470690483642105e+00 3.6104915355524096e+00 1.6529623578443637e+01 -2 -1 -2
138 23 5 9.1100000000000003e-01 1.0384810058049542e+01 2.3429521993907771e+00 1.6618743090377063e+01 -2 -1 -2
135 23 2 -4.6100000000000002e-01 9.7171011262914302e+00 1.0351310369310476e+00 1.6864602986144785e+01 -2 -1 -2
279 47 7 -8.1999999999999995e-01 5.8153994386028254e+00 5.8462734304034454e+00 8.7870039130884958e+00 -1 -3 0
295 52 8 4.0999999999999998e-01 6.3897164376301205e+00 7.9153312658086081e+00 1.2352954653385886e+01 -1 -1 0
143 23 3 -1.3800000000000001e-01 9.6722947987851349e+00 4.7993664966062957e+00 1.6859170910588556e+01 -2 -1 -2
48 17 5 9.1100000000000003e-01 1.3884779112256142e+01 5.6248227618695683e+00 1.5604228063079796e+01 -2 -1 -2
53 17 3 -1.3800000000000001e-01 1.1456662139728790e+01 6.5635735333545586e+00 1.5181724283137319e+01 -2 -1 -2
230 30 8 4.0999999999999998e-01 1.3917930655282191e+01 2.8621576971914915e+00 1.3174079109978777e+01 0 1 -2
225 29 7 -8.1999999999999995e-01 1.2485166158220157e+01 1.2236935882568090e+00 9.9742287022526188e+00 1 1 -4
46 17 3 -1.3800000000000001e-01 1.2351699737288149e+01 5.4842456867107323e+00 1.3572258120348437e+01 -2 -1 -2
150 24 2 -4.6100000000000002e-01 1.6321611476895733e+01 1.3371953132135306e+00 1.4577267110981426e+01 -1 0 0
51 17 6 -5.8799999999999997e-01 1.4331581657718882e+01 6.7725457804187457e+00 1.6814526856756320e+01 -2 -1 -2
262 41 8 4.0999999999999998e-01 1.6011109267916090e+01 4.7863218688137863e+00 9.8188410137475088e+00 -2 -2 2
115 21 2 -4.6100000000000002e-01 1.1342021584483142e+01 6.2153790106506532e+00 8.9019691210492482e+00 -1 0 -1
168 25 5 9.1100000000000003e-01 1.5801807121170141e+01 6.9350975112696220e+00 1.1094776980138629e+01 -2 0 -1
154 24 2 -4.6100000000000002e-01 1.4694613637488802e+01 1.8583561080772395e+00 1.6479319336194518e+01 -1 0 0
236 32 8 4.0999999999999998e-01 1.4820437835910727e+01 1.2953671880045248e+00 1.2057012333737148e+01 2 3 -1
227 29 8 4.0999999999999998e-01 1.2367210393979867e+01 2.1607753236609915e+00 1.0365371619379008e+01 1 1 -4
144 23 5 9.1100000000000003e-01 1.1415675697467259e+01 1.0071740215674090e+00 1.4147869066168340e+01 -2 -1 -2
52 17 2 -4.6100000000000002e-01 1.6528337058390825e+01 7.5562424920728892e+00 1.5739241622327047e+01 -2 -1 -2
142 23 2 -4.6100000000000002e-01 1.2524679586587625e+01 1.1982241927665931e+00 1.3263813006341092e+01 -2 -1 -2
234 32 7 -8.1999999999999995e-01 1.5312758035365409e+01 4.4445928053317035e-01 1.1576224225097198e+01 2 3 -1
169 25 2 -4.6100000000000002e-01 1.5228920486040412e+01 6.1657479050919983e+00 1.2222056801490735e+01 -2 0 -1
110 21 3 -1.3800000000000001e-01 1.1934397031606174e+01 8.0216066522852021e+00 1.1217913144030609e+01 -1 0 -1
261 41 7 -8.1999999999999995e-01 1.6195198310121000e+01 3.7430355693100563e+00 9.9569390998585430e+00 -2 -2 2
47 17 4 3.1900000000000001e-01 1.2576639861199684e+01 6.3928166045145973e+00 1.4567210294363333e+01 -2 -1 -2
226 29 8 4.0999999999999998e-01 1.1618758648384489e+01 1.0521496335245375e+00 9.4712432083748883e+00 1 1 -4
153 24 5 9.1100000000000003e-01 1.5696738928296105e+01 1.0241873136072979e+00 1.5858723857616619e+01 -1 0 0
228 30 7 -8.1999999999999995e-01 1.4530671194722037e+01 3.0265081028844425e+00 1.2381396248202085e+01 0 1 -2
263 41 8 4.0999999999999998e-01 1.5781160635904286e+01 3.3384131811864779e+00 1.0747315976709091e+01 -2 -2 2
50 17 3 -1.3800000000000001e-01 1.3011496275385637e+01 7.5630024402009646e+00 1.4037948272065274e+01 -2 -1 -2
165 25 2 -4.6100000000000002e-01 1.5598227060107485e+01 6.5174625243184110e+00 9.7461886357464316e+00 -2 0 -1
314 58 8 4.0999999999999998e-01 1.3678008351301825e+01 4.4354939390121766e+00 9.7442975372774949e+00 -1 -2 -3
45 17 2 -4.6100000000000002e-01 1.5143717771626502e+01 5.2466224364427294e+00 1.4918815582991588e+01 -2 -1 -2
313 58 8 4.0999999999999998e-01 1.2394664968105285e+01 5.0733223653733566e+00 1.0603797004142470e+01 -1 -2 -3
312 58 7 -8.1999999999999995e-01 1.3141386012547418e+01 4.4678685226129033e+00 1.0673714207733299e+01 -1 -2 -3
4 4 1 8.0000000000000004e-01 1.6483701367057620e+01 4.7409320192655784e+00 1.3349002009912995e+01 -1 -3 1
229 30 8 4.0999999999999998e-01 1.4135603819807987e+01 3.8220533500625429e+00 1.1706314514623283e+01 0 1 -2
49 17 2 -4.6100000000000002e-01 1.3291560119146114e+01 4.6786304874194569e+00 1.6560603718803936e+01 -2 -1 -2
11 11 1 8.0000000000000004e-01 1.4093065482346391e+01 9.3811238638160399e-01 8.7051341264882840e+00 -1 1 0
235 32 8 4.0999999999999998e-01 1.4529578083736480e+01 7.8212068441697369e-02 1.1135803348660838e+01 2 3 -1
311 57 8 4.0999999999999998e-01 1.6088191034857839e+01 2.7757506057764996e+00 8.5661824465067653e+00 1 0 1
209 27 3 -1.3800000000000001e-01 3.5246757266541295e+00 1.1974925960021986e+01 4.8846373431765544e+00 1 -1 1
300 54 7 -8.1999999999999995e-01 2.6473192097491580e+00 1.3416963465151662e+01 2.2196207730106967e+00 -1 -6 -1
206 27 3 -1.3800000000000001e-01 3.2182044917384762e+00 1.2216975567873320e+01 6.9496573695409900e+00 1 -1 1
302 54 8 4.0999999999999998e-01 1.9638671713602520e+00 1.3031898742470975e+01 2.8668145752582985e+00 -1 -6 -1
208 27 4 3.1900000000000001e-01 4.1319803233676433e+00 1.2410030290028793e+01 5.9820708990148788e+00 1 -1 1
301 54 8 4.0999999999999998e-01 2.4957554327677638e+00 1.3066538348984579e+01 1.2478764550783923e+00 -1 -6 -1
204 27 5 9.1100000000000003e-01 4.5947671626444366e+00 1.4085450211284344e+01 5.8880244440077547e+00 1 -1 1
205 27 2 -4.6100000000000002e-01 3.4943646461994682e+00 1.5040441387598563e+01 6.0871082134844690e+00 1 -1 1
6 6 1 8.0000000000000004e-01 2.9260413576433342e+00 1.5154505577133396e+01 3.3283335258406583e+00 -1 -1 -2
214 28 2 -4.6100000000000002e-01 5.5044800361197854e+00 1.0613299042234612e+01 2.0299883159638736e+00 -1 0 1
201 27 6 -5.8799999999999997e-01 4.9415429222864713e+00 1.4326364330342289e+01 4.2000975707830097e+00 1 -1 1
207 27 3 -1.3800000000000001e-01 5.2066484107893896e+00 1.1659166419006750e+01 6.1860859746752581e+00 1 -1 1
34 16 2 -4.6100000000000002e-01 8.1701590433289917e-01 1.5214049159816200e+01 3.5811922194467494e+00 0 -2 -1
42 16 3 -1.3800000000000001e-01 4.9666781688917611e-01 1.0103248484676929e+01 5.5415758953568481e+00 0 -2 -1
217 28 2 -4.6100000000000002e-01 5.0864548360333117e+00 8.5786633538542869e+00 9.0870154702155093e-02 -1 0 1
41 16 3 -1.3800000000000001e-01 2.6687434817443972e-01 1.1636027369261534e+01 7.1003667666573422e+00 0 -2 -1
30 16 2 -4.6100000000000002e-01 1.2238014530440956e-01 1.4807245377174942e+01 6.0099376455051603e+00 0 -2 -1
36 16 6 -5.8799999999999997e-01 7.9157808695330761e-02 1.3051677923949120e+01 4.3021891422502803e+00 0 -2 -1
215 28 3 -1.3800000000000001e-01 4.0962572535861597e+00 8.5511755025945746e+00 4.3836167645794308e+00 -1 0 1
319 60 8 4.0999999999999998e-01 2.3776926583791584e+00 1.5373443791290402e+01 7.5700670423411189e+00 -1 1 -1
211 28 3 -1.3800000000000001e-01 3.4085417343844924e+00 8.8120359555182848e+00 2.3854420008832102e+00 -1 0 1
219 28 5 9.1100000000000003e-01 6.5783123534000669e+00 8.6587287691132460e+00 4.7879020060826234e-02 -1 0 1
202 27 2 -4.6100000000000002e-01 5.9343030518296018e+00 1.4165931948605895e+01 6.6309129809047471e+00 1 -1 1
210 28 2 -4.6100000000000002e-01 6.8684372857908471e+00 9.6434634916764832e+00 4.0037029132044273e+00 -1 0 1
199 27 2 -4.6100000000000002e-01 6.0388538193624912e+00 1.3684102915435082e+01 2.1705325148354899e+00 1 -1 1
93 20 5 9.1100000000000003e-01 1.0414190614464076e+01 1.4717610547578362e+01 8.0193530705797578e+00 -1 -1 0
216 28 6 -5.8799999999999997e-01 6.8697776478306993e+00 8.5092546669683760e+00 1.8267727655948163e+00 -1 0 1
203 27 3 -1.3800000000000001e-01 6.5062514111868461e+00 1.6690240495393308e+01 3.0703965537678251e+00 1 -1 1
197 27 4 3.1900000000000001e-01 7.3580610350470419e+00 1.5717659330873271e+01 3.4393050782029349e+00 1 -1 1
198 27 5 9.1100000000000003e-01 6.5589556906556776e+00 1.4063947566270667e+01 3.4746271671210098e+00 1 -1 1
195 27 2 -4.6100000000000002e-01 7.1802910408729383e+00 1.3014515468504680e+01 4.2994881043948343e+00 1 -1 1
124 22 2 -4.6100000000000002e-01 9.7932878444300542e+00 1.0737498185727098e+01 2.3448893345090034e+00 -1 0 1
196 27 3 -1.3800000000000001e-01 8.3481582823618403e+00 1.5848443203159469e+01 2.5653762752197871e+00 1 -1 1
241 34 8 4.0999999999999998e-01 8.2030133925109645e+00 1.1596929947024909e+01 5.3939377171356586e+00 1 5 2
240 34 7 -8.1999999999999995e-01 8.5722425789123093e+00 1.1180726440890650e+01 6.2422872553441486e+00 1 5 2
123 22 5 9.1100000000000003e-01 1.0326565216816890e+01 1.1934565440981904e+01 1.6522468588317287e+00 -1 0 1
200 27 3 -1.3800000000000001e-01 8.0819786971890810e+00 1.5913297606113733e+01 4.5149802094191536e+00 1 -1 1
242 34 8 4.0999999999999998e-01 8.1323603103832962e+00 1.0287177425658404e+01 6.2815884985777881e+00 1 5 2
3 3 1 8.0000000000000004e-01 9.0896989698670065e+00 8.4798691445517509e+00 2.4897679343435750e+00 -3 -2 0
90 20 2 -4.6100000000000002e-01 1.0911223328834586e+01 1.5458590036994469e+01 6.8585201958038366e+00 -1 -1 0
7 7 1 8.0000000000000004e-01 1.0500436577618638e+01 1.1113562220270465e+01 6.5915736698548875e+00 -3 2 0
213 28 5 9.1100000000000003e-01 5.9134743050930245e+00 9.4783685759983545e+00 2.8846042314797922e+00 -1 0 1
270 44 7 -8.1999999999999995e-01 1.1176460389117231e+01 1.2643704213234171e+01 5.1547750593838622e+00 3 -2 -2
272 44 8 4.0999999999999998e-01 1.0584069673771797e+01 1.3485367427456163e+01 5.3277894182299672e+00 3 -2 -2
10 10 1 8.0000000000000004e-01 6.3013391246500738e+00 1.2191154794309622e+01 4.1418386350453934e-01 2 2 0
120 22 2 -4.6100000000000002e-01 9.6390831980811509e+00 1.3152385327821852e+01 2.0217018547057743e+00 -1 0 1
340 67 8 4.0999999999999998e-01 9.3447284246059041e+00 8.7991451894770378e+00 5.3150440720379599e+00 -4 0 -4
304 55 8 4.0999999999999998e-01 5.7217968601492641e+00 1.4253044926082037e+01 8.3093978094862173e+00 1 -5 -1
94 20 2 -4.6100000000000002e-01 9.6641008870920242e+00 1.3494452110906558e+01 7.7472724826934929e+00 -1 -1 0
250 37 8 4.0999999999999998e-01 7.6160444257100490e+00 1.1771034311470814e+01 7.7459888717134620e+00 2 0 -3
126 22 6 -5.8799999999999997e-01 9.6122013314405539e+00 1.1645149895384154e+01 1.3525223246303339e-01 -1 0 1
151 24 3 -1.3800000000000001e-01 1.6608241343793708e+01 1.6524245940255874e+01 1.0251347440094791e+00 -1 -1 1
269 43 8 4.0999999999999998e-01 1.5762515638787905e+01 1.2381136289985291e+01 1.9653394188741786e+00 3 2 0
35 16 3 -1.3800000000000001e-01 1.5327877274125138e+01 1.6725299764125936e+01 3.5622001717518592e+00 -1 -2 -1
39 16 5 9.1100000000000003e-01 1.5737171041851813e+01 1.2042694026368705e+01 4.9305482920376189e+00 -1 -2 -1
55 17 2 -4.6100000000000002e-01 1.5846409712958646e+01 8.5111495088249765e+00 9.4845309197845107e-01 -2 -1 -1
43 16 4 3.1900000000000001e-01 1.6516893884748793e+01 1.0955595668684223e+01 6.1017097538580005e+00 -1 -2 -1
33 16 5 9.1100000000000003e-01 1.6739694015359763e+01 1.4762714196486968e+01 4.5821937997692119e+00 -1 -2 -1
271 44 8 4.0999999999999998e-01 1.2136920680210684e+01 1.2898447212549970e+01 4.7835231337759136e+00 3 -2 -2
44 16 3 -1.3800000000000001e-01 1.5545737253652815e+01 1.0133784684024464e+01 6.5985609336929754e+00 -1 -2 -1
267 43 7 -8.1999999999999995e-01 1.5373944681428670e+01 1.2491361577297894e+01 9.7520980662071999e-01 3 2 0
284 48 8 4.0999999999999998e-01 1.6521866194881479e+01 1.4041518414856652e+01 7.5055733174067001e+00 -6 -2 -1
37 16 2 -4.6100000000000002e-01 1.4828468301583458e+01 1.2974338711978922e+01 5.5642537688450506e+00 -1 -2 -1
32 16 4 3.1900000000000001e-01 1.5114954628391912e+01 1.5516333227793565e+01 4.1622913939212767e+00 -1 -2 -1
97 20 2 -4.6100000000000002e-01 1.1780158036007471e+01 1.1710907790644635e+01 8.2015526912316190e+00 -1 -1 0
232 31 8 4.0999999999999998e-01 1.1494064026759734e+01 9.1670815102784928e+00 7.8197322981148254e+00 1 -2 3
128 22 3 -1.3800000000000001e-01 1.2700397769409307e+01 1.1056464887320601e+01 7.8808821194862422e-01 -1 0 1
122 22 4 3.1900000000000001e-01 1.2107525183529514e+01 1.1918405873162056e+01 1.6885275913141709e+00 -1 0 1
8 8 1 8.0000000000000004e-01 1.4843124990351678e+01 1.0478938629554355e+01 6.3032607240607830e-01 -3 0 2
121 22 3 -1.3800000000000001e-01 1.2666059564598449e+01 1.1652297440437184e+01 2.8707299023884745e+00 -1 0 1
38 16 3 -1.3800000000000001e-01 1.4314630970266711e+01 1.5675549543995052e+01 5.2638984455499562e+00 -1 -2 -1
285 49 7 -8.1999999999999995e-01 1.1944493578157889e+01 1.6394284237292570e+01 1.4613129152323756e+00 0 -4 3
31 16 3 -1.3800000000000001e-01 1.4509401525165694e+01 1.4668532864216749e+01 3.2804525219309841e+00 -1 -2 -1
125 22 3 -1.3800000000000001e-01 1.2510334779971821e+01 1.3165872586874240e+01 1.2873049093413100e+00 -1 0 1
40 16 2 -4.6100000000000002e-01 1.5211507431501042e+01 1.1443431297065576e+01 3.7155250932641399e+00 -1 -2 -1
231 31 7 -8.1999999999999995e-01 1.1506253976112077e+01 8.9803295849623144e+00 6.7718891231497906e+00 1 -2 3
286 49 8 4.0999999999999998e-01 1.2069488217162988e+01 1.6874600963144921e+01 2.3746487703451642e+00 0 -4 3
287 49 8 4.0999999999999998e-01 1.2826770147306528e+01 1.6284249862577681e+01 9.9001280189028740e-01 0 -4 3
268 43 8 4.0999999999999998e-01 1.5456846795898070e+01 1.3428177546162512e+01 4.7063692147909014e-01 3 2 0
282 48 7 -8.1999999999999995e-01 1.6251259098148765e+01 1.3882114596584913e+01 8.4418097202662707e+00 -6 -2 -1
189 26 5 9.1100000000000003e-01 3.6360972430416760e+00 1.1298578884619847e+01 1.5182304204384009e+01 0 -2 0
186 26 6 -5.8799999999999997e-01 3.4589214075274910e+00 1.2449457412809561e+01 1.3885575985861166e+01 0 -2 0
183 26 5 9.1100000000000003e-01 4.8009718386736777e+00 1.3265228344327719e+01 1.3194654985198454e+01 0 -2 0
182 26 4 3.1900000000000001e-01 5.2928100998226659e+00 1.4814688378509329e+01 1.4171004124284131e+01 0 -2 0
181 26 3 -1.3800000000000001e-01 4.2530826045289700e+00 1.5644120973003243e+01 1.4328437735478433e+01 0 -2 0
315 59 7 -8.1999999999999995e-01 2.4363679927375665e+00 1.2188965388594800e+01 9.5515930625598209e+00 -3 2 -1
193 26 4 3.1900000000000001e-01 2.0125383960509198e+00 1.1105134240017795e+01 1.6065717153254347e+01 0 -2 0
320 60 8 4.0999999999999998e-01 1.0385896571118725e+00 1.5075831096054346e+01 8.5838766673987106e+00 -1 1 -1
258 40 7 -8.1999999999999995e-01 4.3369394763529900e+00 1.6410478325675932e+01 1.0872793509919422e+01 3 1 -1
191 26 3 -1.3800000000000001e-01 1.0010530462954204e+00 1.0841641544371884e+01 1.5301096943974208e+01 0 -2 0
187 26 2 -4.6100000000000002e-01 3.9159126116140150e+00 1.0083234516653873e+01 1.4436798517456802e+01 0 -2 0
316 59 8 4.0999999999999998e-01 3.1438383047227285e+00 1.2078359341848602e+01 8.7895598368479604e+00 -3 2 -1
9 9 1 8.0000000000000004e-01 3.4627251954126357e+00 1.4561684698445946e+01 1.0145456238635798e+01 -2 -1 1
317 59 8 4.0999999999999998e-01 1.4960415811869545e+00 1.2472077998577753e+01 9.2775384921907822e+00 -3 2 -1
243 35 7 -8.1999999999999995e-01 3.1454601085784878e-01 1.4439203893442864e+01 1.1299071781493257e+01 -3 1 4
245 35 8 4.0999999999999998e-01 5.4499371422670062e-01 1.3472359461331473e+01 1.1544922047037204e+01 -3 1 4