variable        infile index data.mol
variable        mytemp index 373

# set up simulation
#read_restart    ${NAME}.restart.*

# the following information is saved to restart files
units           real
atom_style      full
boundary        p p p
pair_style      lj/cut/coul/long 7
kspace_style    pppm 0.0001
pair_modify     tail yes
pair_modify     mix arithmetic
special_bonds   amber

bond_style      harmonic
angle_style     harmonic
dihedral_style  charmm
#improper_style  cvff

read_data       ${infile}
read_data       data.mol
  orthogonal box = (0 0 0) to (16.9073 16.9207 16.9298)
  1 by 2 by 2 MPI processor grid
  reading atoms ...
  341 atoms
  reading velocities ...
  341 velocities
  scanning bonds ...
  4 = max bonds/atom
  scanning angles ...
  6 = max angles/atom
  scanning dihedrals ...
  12 = max dihedrals/atom
  reading bonds ...
  274 bonds
  reading angles ...
  389 angles
  reading dihedrals ...
  420 dihedrals
  4 = max # of 1-2 neighbors
  6 = max # of 1-3 neighbors
  12 = max # of 1-4 neighbors
  14 = max # of special neighbors
  special bonds CPU = 0.000436915 secs
  read_data CPU = 0.0116177 secs

#replicate       3 4 4

neighbor        2.0 bin
neigh_modify    delay 0 every 1 check yes page 1000000 one 20000
timestep        1.0
#velocity        all create ${mytemp} 314159265 mom yes rot yes dist gaussian

## end information that is saved to restart files

## create velocity profile
#minimize       1e-4 1e-6 10000 10000
#velocity        all create  ${mytemp} 314159265 units box
velocity        all zero linear units box
dump            DUMP all custom 1000 ${NAME}.lammpstrj id type x y z mol
dump            DUMP all custom 1000 mol.lammpstrj id type x y z mol
thermo_style    custom step vol temp press ke pe etotal enthalpy evdwl ecoul epair ebond eangle edihed eimp emol elong etail lx ly lz xy xz yz pxy pxz pyz pxx pyy pzz
thermo          1000
#
## thermostat and integrator

#fix             NPT all npt temp ${mytemp} ${mytemp} 100.0 iso 1.0 1.0 100.0
fix             NVT all nvt temp ${mytemp} ${mytemp} 100.0
fix             NVT all nvt temp 373 ${mytemp} 100.0
fix             NVT all nvt temp 373 373 100.0

restart         50000 restart.${NAME}.1 restart.${NAME}.2
restart         50000 restart.mol.1 restart.${NAME}.2
restart         50000 restart.mol.1 restart.mol.2
run             10000000
PPPM initialization ...
  using 12-bit tables for long-range coulomb (src/kspace.cpp:332)
  G vector (1/distance) = 0.371916
  grid = 12 12 12
  stencil order = 5
  estimated absolute RMS force accuracy = 0.0291692
  estimated relative force accuracy = 8.78421e-05
  using double precision KISS FFT
  3d grid and FFT values/proc = 3211 432
Neighbor list info ...
  update every 1 steps, delay 0 steps, check yes
  max neighbors/atom: 20000, page size: 1000000
  master list distance cutoff = 9
  ghost atom cutoff = 9
  binsize = 4.5, bins = 4 4 4
  1 neighbor lists, perpetual/occasional/extra = 1 0 0
  (1) pair lj/cut/coul/long, perpetual
      attributes: half, newton on
      pair build: half/bin/newton
      stencil: half/bin/3d/newton
      bin: standard
Per MPI rank memory allocation (min/avg/max) = 17.93 | 17.93 | 17.94 Mbytes
Step Volume Temp Press KinEng PotEng TotEng Enthalpy E_vdwl E_coul E_pair E_bond E_angle E_dihed E_impro E_mol E_long E_tail Lx Ly Lz Xy Xz Yz Pxy Pxz Pyz Pxx Pyy Pzz 
       0    4843.3339     371.1146   -5793.0892    376.11552   -645.51868   -269.40316   -678.59835   -75.784481    4888.2792   -1598.1962    126.73032    191.61068    634.33651            0    952.67751   -6410.6909   -45.460554      16.9073      16.9207      16.9298            0            0            0    1250.9519   -1497.4135   -1213.0561   -4220.4513   -7818.4908   -5340.3256 
    1000    4843.3339      376.906    788.50854    381.98497   -646.35462   -264.36965    -208.6733   -77.810469    4943.7231    -1544.225    113.95657    156.92526    626.98854            0    897.87036   -6410.1376   -45.460554      16.9073      16.9207      16.9298            0            0            0   -1365.1287    1809.5634    1372.6058    984.68306    6521.6883   -5140.8457 
    2000    4843.3339    355.05615    1048.1757    359.84068   -601.38074   -241.54006   -167.50211   -67.456278    4937.5316      -1541.8     138.2806    179.51519    622.62343            0    940.41922   -6411.8753   -45.460554      16.9073      16.9207      16.9298            0            0            0   -1195.9389    401.32051    1851.8905   -4187.5018    2869.6722    4462.3567 
    3000    4843.3339    387.58931    6658.6251    392.81224   -640.38227   -247.57004    222.76233   -69.712692    4943.6219   -1534.3545     110.9159    159.89058    623.16577            0    893.97225   -6408.2637   -45.460554      16.9073      16.9207      16.9298            0            0            0    2366.8673    467.29576   -720.72208    8262.4382    5754.5624    5958.8746 
    4000    4843.3339    344.95474     1716.718    349.60315   -585.84468   -236.24152   -114.98105   -54.875134    4951.6768    -1513.947    130.94273    178.73539    618.42416            0    928.10228   -6410.7487   -45.460554      16.9073      16.9207      16.9298            0            0            0   -1054.9118   -3034.0829    3098.9263    4606.8693    1071.1778   -527.89298 
    5000    4843.3339     365.9464   -2518.1691    370.87768   -598.20406   -227.32638    -405.1974   -85.884328     4956.264   -1539.3472     134.4179    188.53894    618.18635            0    941.14319   -6409.7269   -45.460554      16.9073      16.9207      16.9298            0            0            0    1889.9776    1277.0146   -2354.1348   -3122.0454    1438.5822   -5871.0442 
    6000    4843.3339    351.32974    5102.2791    356.06406   -608.12247   -252.05841    108.34137    -58.70497    4929.2855   -1537.3644    110.50983    194.69586     624.0362            0    929.24189   -6407.9448   -45.460554      16.9073      16.9207      16.9298            0            0            0    2381.8126   -1101.6192    644.35849    2880.1255    4656.0501    7770.6618 
    7000    4843.3339    374.82486    3040.6467    379.87578   -638.89202   -259.01624   -44.239989   -65.295601    4912.5804   -1561.3063    114.17355    180.60044    627.64029            0    922.41429   -6408.5911   -45.460554      16.9073      16.9207      16.9298            0            0            0   -1543.5969   -1487.6698   -587.79317    131.09465    3270.0048    5720.8405 
    8000    4843.3339    355.23097   -1449.8803    360.01785   -582.28752   -222.26967   -324.68204   -71.328189    4904.3441   -1573.0457    152.37814    207.43487    630.94513            0    990.75814   -6406.0615   -45.460554      16.9073      16.9207      16.9298            0            0            0    353.37523    937.45412   -3183.7255   -229.14329    2197.2397   -6317.7373 
    9000    4843.3339    368.06003   -2159.4467    373.01979   -667.02961   -294.00981   -446.54245   -63.680328    4898.9673   -1573.6467    118.90163    170.92759    616.78782            0    906.61705   -6408.9336   -45.460554      16.9073      16.9207      16.9298            0            0            0    1927.9086   -964.91075   -3165.8256    876.16362   -4366.4823   -2988.0214 
   10000    4843.3339    377.88914    2662.4193    382.98135   -644.24686   -261.26552   -73.205375   -79.402877    4917.6652   -1571.4058    113.50053    191.89301    621.76539            0    927.15893   -6409.6681   -45.460554      16.9073      16.9207      16.9298            0            0            0    542.25049    2638.5819    1795.3733    3855.4887   -1490.1883    5621.9575 
   11000    4843.3339    371.27432    5275.4898     376.2774   -628.39891   -252.12151    120.51301   -60.183383    4898.2121   -1571.2631    116.15551    192.78202    633.92669            0    942.86421   -6409.2919   -45.460554      16.9073      16.9207      16.9298            0            0            0    2865.7045     221.4556   -784.79801    6868.8897    9815.2144   -857.63462 
   12000    4843.3339    361.22696   -576.01952    366.09465   -626.98897   -260.89432   -301.58149   -64.660195    4930.7906   -1541.1941    119.62173    165.20463     629.3788            0    914.20516   -6407.3246   -45.460554      16.9073      16.9207      16.9298            0            0            0    2492.5099   -908.27196    2128.2828    1059.0824   -1719.1582   -1067.9828 
   13000    4843.3339    333.47295   -1746.5534    337.96664   -615.01168   -277.04505   -400.41295   -92.925785    4950.3345   -1549.5248    139.60832    176.12702    618.77777            0    934.51312   -6406.9335   -45.460554      16.9073      16.9207      16.9298            0            0            0    1201.0306    1232.8701   -4243.7677   -6029.8996    296.72263    493.51665 
   14000    4843.3339    374.93496   -1240.8297    379.98736   -592.98547   -212.99811   -300.64418    -83.91992    4941.7088   -1550.9494    144.45157     195.9431    617.56929            0    957.96396   -6408.7383   -45.460554      16.9073      16.9207      16.9298            0            0            0    555.19818    257.27467    2671.1088   -1223.6184   -1768.0011   -730.86949 
   15000    4843.3339    390.13085     -3523.52    395.38802   -642.98565   -247.59763   -496.48167   -68.803737    4897.4677   -1578.4927    129.62712    192.85818    613.02171            0    935.50701   -6407.1566   -45.460554      16.9073      16.9207      16.9298            0            0            0   -2862.8902    2049.4895    292.86871   -4040.1316   -1084.9707   -5445.4578 
   16000    4843.3339    360.31342   -4291.0689    365.16879   -645.04165   -279.87286   -582.97275   -97.990028    4946.3907   -1562.4858    111.95916    184.73302    620.75197            0    917.44415   -6410.8865   -45.460554      16.9073      16.9207      16.9298            0            0            0    1899.7702   -2094.9304    2450.7922   -10435.281   -3186.8115    748.88555 
   17000    4843.3339    368.37938   -679.75416    373.34345   -619.34203   -245.99858   -294.01305   -61.574606    4918.5935   -1557.0671     131.3857    181.82729    624.51205            0    937.72504   -6414.0859   -45.460554      16.9073      16.9207      16.9298            0            0            0    15.583905   -2631.0699   -3814.7484    1845.6006   -1652.6099   -2232.2532 
   18000    4843.3339     371.4535   -5244.9292    376.45899   -630.80246   -254.34347   -624.81935   -89.111295    4923.3394   -1575.5799    135.44074    189.75508    619.58165            0    944.77747    -6409.808   -45.460554      16.9073      16.9207      16.9298            0            0            0   -2044.1447    4055.5042    856.14396   -4655.3409   -8999.1009   -2080.3458 
   19000    4843.3339    391.66787   -5741.3663    396.94576   -636.06553   -239.11977   -644.66151   -70.433241    4927.9874   -1553.0737     132.5452    164.61709    619.84591            0     917.0082   -6410.6279   -45.460554      16.9073      16.9207      16.9298            0            0            0    1551.3449    5552.4452    434.39978   -10702.875   -3238.2494    -3282.975 
   20000    4843.3339    389.60828    5564.8664    394.85841   -642.96425   -248.10583    144.96882   -75.146888    4938.2646   -1550.6574    103.14639    173.38264    631.16412            0    907.69315   -6413.7751   -45.460554      16.9073      16.9207      16.9298            0            0            0   -134.91025    1043.1519     2151.847    6947.4266    4325.2435     5421.929 
   21000    4843.3339    360.60442   -2871.3647    365.46371   -631.40105   -265.93734   -468.75635    -106.7996    4957.1437   -1559.9962     107.3832     195.4389    625.77306            0    928.59516   -6410.3403   -45.460554      16.9073      16.9207      16.9298            0            0            0   -1480.7425    1650.1271    523.40758   -4246.2966   -1561.7372   -2806.0604 
   22000    4843.3339    362.31602    6615.0264    367.19838   -608.74118    -241.5428    225.70996   -68.433952    4967.2062   -1511.9601    112.83493    180.23537    610.14866            0    903.21895   -6410.7323   -45.460554      16.9073      16.9207      16.9298            0            0            0    201.08325    396.75159    1734.2334    10300.349    8037.9019    1506.8278 
   23000    4843.3339     394.5343   -3407.0643    399.85081   -614.29132    -214.4405   -455.09869   -80.945216    4929.7906   -1559.9331    124.21145    197.61348    623.81686            0    945.64179   -6408.7785   -45.460554      16.9073      16.9207      16.9298            0            0            0   -1407.6543   -603.89432   -3192.7006   -5893.2778   -2180.3304   -2147.5846 
   24000    4843.3339    387.04562    907.11974    392.26122   -648.38425   -256.12303   -192.04857    -82.82535    4923.2793   -1571.3423    125.91772    175.12757    621.91279            0    922.95807   -6411.7963   -45.460554      16.9073      16.9207      16.9298            0            0            0    1177.6317    -237.1754    1108.8924   -99.914424   -1580.1913    4401.4649 
   25000    4843.3339    390.23346    1331.0342    395.49202   -629.34509   -233.85307    -139.8354   -59.814852    4919.9035   -1553.7124    112.44448    182.15217    629.77062            0    924.36727   -6413.8011   -45.460554      16.9073      16.9207      16.9298            0            0            0   -4970.3071   -1308.0857    503.42975     3514.987   -5061.3407    5539.4563 
   26000    4843.3339    359.73507    2574.8364    364.58265   -637.52667   -272.94402   -91.070304   -84.475864    4962.4159   -1535.3584     108.6182    171.85115     617.3624            0    897.83175   -6413.2985   -45.460554      16.9073      16.9207      16.9298            0            0            0    209.91038    1748.0655    1397.8257   -827.56556    3857.2884    4694.7864 
   27000    4843.3339    342.88307   -6816.1795    347.50356   -646.87241   -299.36885   -780.83008   -107.85174    4950.7342     -1566.69    125.45517    170.94775    623.41468            0    919.81759   -6409.5724   -45.460554      16.9073      16.9207      16.9298            0            0            0   -3224.7306    -97.35135    3321.4868    -5087.705   -6973.3774    -8387.456 
   28000    4843.3339     362.3775   -2705.5948    367.26068   -627.85571   -260.59503   -451.70487   -73.259451    4932.0343   -1552.7257     113.0728    190.13195    621.66523            0    924.86998   -6411.5005   -45.460554      16.9073      16.9207      16.9298            0            0            0   -224.72896   -2372.6664    139.30271   -6589.1897   -2178.1114    650.51655 
   29000    4843.3339    369.16204    4535.9693    374.13665   -627.25314   -253.11649    67.281966   -62.506882    4938.8331   -1536.7153    109.12924    177.63333    622.69962            0    909.46219   -6413.0415   -45.460554      16.9073      16.9207      16.9298            0            0            0    719.52424   -291.54913    631.76316    3196.0252    4621.8077     5790.075 
   30000    4843.3339    390.86305    546.61764    396.13009   -621.67145   -225.54136   -186.93099     -87.7166    4932.8333   -1563.8445    121.20306    199.45833    621.51166            0    942.17305   -6408.9612   -45.460554      16.9073      16.9207      16.9298            0            0            0   -2222.1089   -3313.2337   -5341.4213   -1156.5332    4485.1656   -1688.7795 
   31000    4843.3339    381.43458   -2218.0621    386.57457   -629.07427    -242.4997   -399.17264   -100.21487    4960.9901   -1548.7325    105.63453    183.11919    630.90447            0     919.6582   -6409.5076   -45.460554      16.9073      16.9207      16.9298            0            0            0    1121.8702    349.70722   -1124.5743    799.75387    124.41994     -7578.36 
   32000    4843.3339    358.62366   -2006.8618    363.45626   -640.61749   -277.16122   -418.91602   -58.505025    4888.2681   -1579.6445    129.71608    179.33096    629.97998            0    939.02702   -6409.4076   -45.460554      16.9073      16.9207      16.9298            0            0            0   -1701.0893    964.96832    1894.6638   -1823.6379   -657.85192   -3539.0957 
   33000    4843.3339    383.28937    -5919.163    388.45436   -627.88035   -239.42599   -657.52641   -86.733106    4911.1531   -1583.4155    123.38878    203.69867    628.44767            0    955.53512   -6407.8354   -45.460554      16.9073      16.9207      16.9298            0            0            0   -4680.4853   -3676.0143   -2525.4897   -8074.5532   -6035.9645   -3646.9713 
   34000    4843.3339    363.00101    2608.9452     367.8926   -652.54047   -284.64786   -100.36487   -85.728465     4917.494   -1580.6004    114.01827    195.75341    618.28827            0    928.05995   -6412.3659   -45.460554      16.9073      16.9207      16.9298            0            0            0    889.25132    2656.5322    -463.8691     6253.554   -1859.7208    3433.0025 
   35000    4843.3339    346.84038   -969.91867     351.5142   -632.45707   -280.94286   -349.45313   -78.395102    4926.0684   -1561.2943    117.80533    181.81975    629.21212            0     928.8372   -6408.9675   -45.460554      16.9073      16.9207      16.9298            0            0            0   -2076.3904   -833.18768   -776.17658   -1811.2163   -3575.9368     2477.397 
   36000    4843.3339    391.73004    2221.9273    397.00877   -641.47903   -244.47026   -87.524302   -79.969368    4900.5627   -1591.6536    121.55136    203.07373    625.54943            0    950.17452   -6412.2469   -45.460554      16.9073      16.9207      16.9298            0            0            0   -4763.3335    158.26236    1194.0203    3318.0091   -1565.9068    4913.6795 
   37000    4843.3339    393.46574   -2220.9222    398.76785   -633.23002   -234.46217   -391.33713   -67.519896    4935.5383   -1544.1511    125.11789    168.70056    617.10261            0    910.92107   -6412.1695   -45.460554      16.9073      16.9207      16.9298            0            0            0   -1748.1108    1698.4527   -1047.2567   -201.65828   -4157.4886   -2303.6197 
   38000    4843.3339    352.81486    3443.5432    357.56919   -650.42622   -292.85703   -49.622156   -91.815521    4933.4233   -1570.3467     111.4456    189.15406    619.32084            0     919.9205   -6411.9545   -45.460554      16.9073      16.9207      16.9298            0            0            0    914.58211   -3350.1492   -755.83502    3117.8142    4021.3239    3191.4916 
   39000    4843.3339    382.01452    993.94594    387.16233   -618.67801   -231.51568   -161.30825   -73.118476    4944.3663    -1536.228    114.92309    175.28274    627.34413            0    917.54997   -6407.4758   -45.460554      16.9073      16.9207      16.9298            0            0            0    2116.2497    2527.5845   -888.79813    2238.6249    1974.6603   -1231.4474 
   40000    4843.3339     384.5571    4004.2317    389.73916   -662.49339   -272.75422    10.084913   -82.288326    4924.4543   -1573.7748    110.99661     183.4586    616.82621            0    911.28142   -6415.9408   -45.460554      16.9073      16.9207      16.9298            0            0            0    1091.2556   -352.87751   -572.89562   -172.30147    6605.6722    5579.3243 
   41000    4843.3339    387.80972   -1371.9101    393.03562   -603.84215   -210.80653   -307.71148   -63.942309    4939.5099   -1535.8508    130.91333    172.75237    628.34294            0    932.00864   -6411.4184   -45.460554      16.9073      16.9207      16.9298            0            0            0   -7016.3916    3596.8398   -208.00988   -1731.5944   -838.58935   -1545.5465 
   42000    4843.3339    356.62858    215.59077     361.4343   -628.38495   -266.95065   -251.72239   -54.991061    4897.7215   -1567.6554    129.49479     191.6824    618.09322            0     939.2704   -6410.3858   -45.460554      16.9073      16.9207      16.9298            0            0            0   -492.31665     1737.335   -1726.0034    3016.3342   -3249.1077    879.54581 
   43000    4843.3339    375.83768    1211.9684    380.90225   -615.27231   -234.37006   -148.76261   -91.165443    4962.6373   -1537.6124    122.42297    176.06473    623.85242            0    922.34013   -6409.0843   -45.460554      16.9073      16.9207      16.9298            0            0            0   -4314.0641    2021.3662    1371.1945    816.12521    1516.7854    1302.9946 
   44000    4843.3339    379.71109    1175.7998    384.82786   -642.63214   -257.80429    -174.7516    -55.46292    4914.2044   -1554.8934    129.13099      157.908    625.22225            0    912.26124   -6413.6349   -45.460554      16.9073      16.9207      16.9298            0            0            0   -1850.5682   -2192.0622    507.68096   -2379.1107    2515.2513    3391.2589 
   45000    4843.3339    352.99531    -681.3295    357.75207   -647.93343   -290.18137   -338.30711   -82.037199     4907.488   -1585.6143     129.5984    189.71338    618.36913            0    937.68091   -6411.0651   -45.460554      16.9073      16.9207      16.9298            0            0            0   -2939.4225    2663.5708    1587.5411   -3701.1805    2876.7547   -1219.5626 
   46000    4843.3339    391.11605   -5995.6688     396.3865   -629.60813   -233.22163   -656.72604    -90.71105    4936.7974   -1567.7793    128.14045    183.17202    626.85865            0    938.17112   -6413.8656   -45.460554      16.9073      16.9207      16.9298            0            0            0   -1124.3252    408.85789   -3097.0884   -8303.8239   -5582.8984   -4100.2841 
   47000    4843.3339    372.41571     1122.575    377.43417   -663.47609   -286.04192   -206.74877   -63.945958    4901.8456    -1579.879    115.06978    170.54961    630.78349            0    916.40288   -6417.7786   -45.460554      16.9073      16.9207      16.9298            0            0            0     1594.873   -989.29545    1155.4327   -962.27823    -3905.966    8235.9691 
   48000    4843.3339     346.0213    2093.8867    350.68409   -602.20063   -251.51655   -103.61474   -69.701786    4916.5722   -1563.7716    143.60508    191.47712    626.48879            0    961.57099   -6410.6421   -45.460554      16.9073      16.9207      16.9298            0            0            0   -3360.3342    -759.2791    1376.3249   -939.99982    3716.5916    3505.0682 
   49000    4843.3339    380.62245   -4017.8045     385.7515   -612.11564   -226.36414     -510.162   -106.61388     4968.575   -1553.7939    121.66354    195.57201    624.44269            0    941.67824    -6415.755   -45.460554      16.9073      16.9207      16.9298            0            0            0   -1233.6297    4508.0599   -37.849104    1004.4185   -6371.2108   -6686.6213 
   50000    4843.3339     376.6765    321.70171    381.75237   -621.83598   -240.08361   -217.36019   -42.463653    4903.0991    -1551.097    121.53378    183.86724    623.85997            0    929.26098   -6411.7325   -45.460554      16.9073      16.9207      16.9298            0            0            0    2955.1633   -2201.1156   -1308.9515    2125.3777    4207.9325   -5368.2051 
   51000    4843.3339    356.14263   -939.85377     360.9418   -654.01388   -293.07208   -359.45871   -72.978867    4904.1126   -1581.4216    112.77762    186.71962    627.91047            0     927.4077   -6412.5553   -45.460554      16.9073      16.9207      16.9298            0            0            0   -1114.1385    3087.8746    2468.1149    1079.1248   -1891.7091    -2006.977 
   52000    4843.3339    387.51173   -2059.0694    392.73361   -638.62082   -245.88721   -391.32969   -66.638648    4912.1983   -1564.3819    127.17873    174.25756     624.3248            0    925.76109   -6409.9415   -45.460554      16.9073      16.9207      16.9298            0            0            0   -2482.4763   -1054.3202    -2541.909   -2300.3365   -452.66032   -3424.2114 
   53000    4843.3339    367.12198    4543.5357     372.0691   -636.41925   -264.35015    56.582752   -63.299805     4906.374   -1566.2011    118.96678    190.19309    620.62197            0    929.78184   -6409.2753   -45.460554      16.9073      16.9207      16.9298            0            0            0   -1320.1682   -4438.9071    -724.8179   -171.68914    8608.0367    5194.2595 
   54000    4843.3339    409.57102   -4147.9248    415.09016   -641.92438   -226.83422   -519.82312   -85.782555    4905.9869   -1583.7302    118.26279    194.81536    628.72766            0    941.80581   -6403.9346   -45.460554      16.9073      16.9207      16.9298            0            0            0    1080.1647    1947.2545    1205.2221   -4591.5984   -4573.4055   -3278.7703 
   55000    4843.3339    363.19548   -801.54145    368.08969    -624.9925   -256.90281   -313.51974   -46.353796    4912.5625   -1540.2281    121.24912    183.73768    610.24878            0    915.23558   -6406.4368   -45.460554      16.9073      16.9207      16.9298            0            0            0    1385.7167   -1069.4285   -4271.2084   -954.93632    -824.6445   -625.04352 
   56000    4843.3339    366.11124    3013.5483    371.04474   -661.00982   -289.96508   -77.102916   -48.486442    4867.3391   -1597.7984    119.86002    189.41636     627.5122            0    936.78858   -6416.6511   -45.460554      16.9073      16.9207      16.9298            0            0            0   -4842.6458   -106.68852    757.75481    2343.0741    3664.3685    3033.2024 
   57000    4843.3339    373.81879   -3625.6524    378.85615   -660.11863   -281.26248   -537.36065   -60.248351    4909.4469   -1562.7416    114.59908    168.68179    619.34208            0    902.62295   -6411.9402   -45.460554      16.9073      16.9207      16.9298            0            0            0   -3444.6771    810.54884    1860.6072   -1326.0478   -5610.8915    -3940.018 
   58000    4843.3339    387.02458    -1199.217    392.23989    -647.6722    -255.4323   -340.13906   -64.821121    4912.9844   -1565.5795    102.19056    199.03256    616.68419            0    917.90732   -6413.7428   -45.460554      16.9073      16.9207      16.9298            0            0            0   -381.94601    1794.6574    -2005.057    -3104.527    1004.2316   -1497.3557 
   59000    4843.3339    329.84773   -1801.9975    334.29256   -661.59959   -327.30703   -454.59122   -90.916908    4925.5515   -1578.5876    113.34419    169.41635    634.22747            0    916.98801   -6413.2222   -45.460554      16.9073      16.9207      16.9298            0            0            0   -4624.8047    104.24997     3469.602   -5570.9596   -313.30486    478.27196 
   60000    4843.3339    415.88774     3380.675    421.49201   -606.69275   -185.20074    53.593434   -63.154142    4938.5791   -1531.6822    120.09755    172.12998     632.7619            0    924.98943   -6407.1071   -45.460554      16.9073      16.9207      16.9298            0            0            0   -973.74369   -127.67512   -5221.2717    4716.6487     3487.053    1938.3235 
   61000    4843.3339    374.68943   -1135.1014    379.73853   -639.02964   -259.29112   -339.46906   -77.377498    4924.2032   -1567.5674    120.57536    180.39903    627.56334            0    928.53773   -6414.3931   -45.460554      16.9073      16.9207      16.9298            0            0            0    883.58963    4191.0698   -3617.6783   -2045.6434    2183.4883   -3543.1489 
   62000    4843.3339    371.07774    1452.7233    376.07817   -649.78169   -273.70352   -171.09033   -81.064669    4912.2969   -1580.9648     114.8021    186.41009    629.97095            0    931.18314    -6412.197   -45.460554      16.9073      16.9207      16.9298            0            0            0   -1854.4214   -4774.6117   -423.95458   -1081.8843    2789.8246    2650.2297 
   63000    4843.3339    381.47124   -4033.7696    386.61173   -637.52349   -250.91176   -535.83731   -85.249422    4919.9865   -1576.0644    116.89392    191.37879    630.26822            0    938.54093   -6410.8015   -45.460554      16.9073      16.9207      16.9298            0            0            0    -539.9296    2230.4658   -1878.8089    597.11359   -3533.0007   -9165.4216 
   64000    4843.3339    353.27216    -499.1856    358.03265   -632.22662   -274.19397   -309.45397    -91.53504    4951.4072   -1554.1468    115.65562    189.06131    617.20322            0    921.92015   -6414.0189   -45.460554      16.9073      16.9207      16.9298            0            0            0   -4023.1114    -2098.409   -3474.1536    587.80015   -254.06502   -1831.2919 
   65000    4843.3339    374.94065   -2115.9713    379.99313   -606.34616   -226.35303   -375.81478   -89.766008    4952.4954    -1549.331    128.69448    189.54018    624.75014            0    942.98481   -6412.0604   -45.460554      16.9073      16.9207      16.9298            0            0            0    60.224672    362.22377    4943.8208   -3082.4492    1117.4792   -4382.9439 
   66000    4843.3339    375.79928   -3110.2499    380.86334   -605.07899   -224.21566   -443.90833   -73.963447    4929.7309   -1559.8846    131.85203    198.56293    624.39067            0    954.80562   -6415.6521   -45.460554      16.9073      16.9207      16.9298            0            0            0   -28.212682    293.76755   -1320.8228   -6580.2447    -2995.922    245.41713 
   67000    4843.3339    380.43742   -312.35977    385.56397   -624.32136   -238.75739   -260.82094   -81.139768    4929.9462   -1564.7539    128.17385    186.97955     625.2791            0     940.4325   -6413.5603   -45.460554      16.9073      16.9207      16.9298            0            0            0   -1460.1163     2222.779   -1148.7535   -747.48517    2965.0956   -3154.6898 
   68000    4843.3339    354.61362   -3000.8663    359.39219   -654.38376   -294.99157   -506.95793   -82.018017    4929.7043   -1565.1438    116.06783    177.07503    617.61722            0    910.76008   -6412.8302   -45.460554      16.9073      16.9207      16.9298            0            0            0    145.42556    528.69978   -192.10274    992.11912    -2199.913   -7794.8049 
   69000    4843.3339    386.11342   -6628.9988    391.31646    -645.1593   -253.84285   -722.08256   -77.980669    4893.2499   -1603.4037    137.41546    200.27184    620.55709            0    958.24439   -6418.6729   -45.460554      16.9073      16.9207      16.9298            0            0            0   -2621.5876   -3190.5887    847.37347    -5205.086   -6835.0819   -7846.8286 
   70000    4843.3339    341.85742   -1861.6187    346.46409   -642.03148   -295.56739   -427.06294   -73.014244    4915.5658   -1567.1119    120.68803    180.72413    623.66825            0    925.08041   -6409.6635   -45.460554      16.9073      16.9207      16.9298            0            0            0   -2243.3354   -173.43804    1063.0656   -3152.5762   -1145.2322   -1287.0478 
   71000    4843.3339    375.33612   -625.66674    380.39393   -641.47428   -261.08035   -305.27436   -78.342844    4930.4914    -1558.922    123.94206    175.34557    618.16006            0    917.44769   -6411.0705   -45.460554      16.9073      16.9207      16.9298            0            0            0   -3749.3683   -4374.9806   -2072.2897   -86.832799   -690.84286   -1099.3246 
   72000    4843.3339    385.91125    -213.2016    391.11156   -617.44555   -226.33398   -241.39349    -82.42223    4946.9192   -1546.2511    113.82713    189.49774    625.48069            0    928.80556   -6410.7481   -45.460554      16.9073      16.9207      16.9298            0            0            0   -3312.8008     2096.683    5970.2866   -495.63716    1103.2064   -1247.1741 
   73000    4843.3339    343.74708   -3915.6416    348.37922   -617.57251   -269.19329   -545.77486   -80.776155    4942.0783   -1545.5753    127.10302    180.22495    620.67482            0    928.00278   -6406.8775   -45.460554      16.9073      16.9207      16.9298            0            0            0   -760.39897    -677.3426     3259.949   -3999.9184    -7875.725     128.7187 
   74000    4843.3339    372.62845    1362.1345    377.64977   -605.89933   -228.24955   -132.03511   -48.590393    4915.6075   -1546.3131     125.9534    192.75136    621.70898            0    940.41375   -6413.3302   -45.460554      16.9073      16.9207      16.9298            0            0            0   -611.77572   -680.53432    5614.3755     1187.002   -880.48613    3779.8875 
   75000    4843.3339    370.40272    3546.3711    375.39405   -629.91613   -254.52208   -4.0239537   -62.160219    4918.6783   -1554.2418    121.34889    181.94324     621.0335            0    924.32563   -6410.7598   -45.460554      16.9073      16.9207      16.9298            0            0            0    2758.2383   -2628.3481   -1337.0119    6249.3855    3768.5843    621.14344 
   76000    4843.3339    375.75027   -1609.9397    380.81366   -622.70838   -241.89472    -355.6129   -64.451263    4943.8328   -1532.7772    116.49663     170.4953    623.07692            0    910.06885   -6412.1588   -45.460554      16.9073      16.9207      16.9298            0            0            0    4118.3259    1573.3195    2213.6805   -1850.8569    -1512.921   -1466.0413 
   77000    4843.3339    364.20485    1280.7652    369.11267   -620.28084   -251.16817   -160.70125   -52.003199    4911.2027   -1555.9666    119.94075    199.16929    616.57575            0    935.68578   -6415.1661   -45.460554      16.9073      16.9207      16.9298            0            0            0   -2416.7325    1871.1141    887.03608    1798.2856    1030.9587    1013.0513 
   78000    4843.3339     395.8102   -2337.0481     401.1439   -652.06009   -250.91618   -415.99371   -74.181776    4882.1981    -1609.613    118.87121    216.77971    621.90197            0    957.55289   -6417.6293   -45.460554      16.9073      16.9207      16.9298            0            0            0    -653.7591    2066.9957   -369.82042   -2548.0616   -36.317944   -4426.7649 
   79000    4843.3339    387.46134    2509.5776    392.68255   -633.66251   -240.97997   -63.715812   -79.150141    4931.5172    -1562.134    126.23077    179.22563    623.01509            0    928.47149   -6414.5011   -45.460554      16.9073      16.9207      16.9298            0            0            0   -3133.1471    3763.0447   -2637.2784    3257.7902     1697.962    2572.9806 
   80000    4843.3339    351.75554   -1437.3216     356.4956   -607.25315   -250.75756   -352.28285   -50.163791    4912.7645   -1545.7264    124.34448    191.45588    622.67292            0    938.47328   -6408.3271   -45.460554      16.9073      16.9207      16.9298            0            0            0   -4136.5029   -2996.3022    955.96893   -4550.1572    235.55032    2.6420388 
   81000    4843.3339    366.93182   -2304.8893    371.87638   -608.83355   -236.95717   -399.76316   -81.893766     4930.637   -1560.7766    135.60308    196.02856    620.31143            0    951.94307   -6409.5199   -45.460554      16.9073      16.9207      16.9298            0            0            0   -2220.0237    3343.1342     3222.994    11.017886   -3176.7901   -3748.8957 
   82000    4843.3339    379.34285   -533.82626    384.45466   -636.55272   -252.09806   -289.80491   -88.415377    4942.2347   -1555.0625    117.36544    176.69557    624.44882            0    918.50982   -6408.8818   -45.460554      16.9073      16.9207      16.9298            0            0            0    4066.8271    1320.5233    1404.1709    2631.5804   -6047.8138    1814.7546 
   83000    4843.3339    366.99651   -5233.0269    371.94194   -604.69195   -232.75001   -602.38517   -84.172261    4926.5435   -1568.1569    139.38995     201.6891    622.38587            0    963.46492   -6410.5281   -45.460554      16.9073      16.9207      16.9298            0            0            0   -421.75783   -5002.3241   -5017.2685   -7776.3825    -1616.261   -6306.4373 
   84000    4843.3339    384.11983    1351.1082    389.29601   -667.78247   -278.48647   -183.05086   -74.586698    4911.0864   -1575.4078    100.69805    184.09512    622.83212            0     907.6253   -6411.9075   -45.460554      16.9073      16.9207      16.9298            0            0            0    3987.3485   -405.15583    -2554.412    1876.7892    2781.8605   -605.32506 
   85000    4843.3339    392.09124   -337.05717    397.37483    -625.0049   -227.63007   -251.43812   -79.503922    4924.3765   -1565.5839    120.26104    189.09057    631.22734            0    940.57895   -6410.4564   -45.460554      16.9073      16.9207      16.9298            0            0            0   -407.96266     98.86008     1581.643   -1283.9083   -2430.6959    2703.4328 
   86000    4843.3339    380.01361    1044.6821    385.13445   -650.78738   -265.65294   -191.86176   -48.463444    4906.2952   -1559.7798    126.54599     167.2121    615.23437            0    908.99246   -6417.6116   -45.460554      16.9073      16.9207      16.9298            0            0            0    4046.7459   -5637.7785   -2305.9821    2825.7393   -1139.4312    1447.7382 
   87000    4843.3339    368.12841   -1125.0635    373.08909   -653.41229    -280.3232   -359.79212   -90.987139    4924.3793   -1582.5516    123.61953    184.25195    621.26783            0    929.13932   -6415.9438   -45.460554      16.9073      16.9207      16.9298            0            0            0   -610.45457    1802.6243   -3641.5406   -5952.5844   -26.546021      2603.94 
   88000    4843.3339    404.28443    1808.4279    409.73233   -669.98777   -260.25544   -132.51702   -53.727057     4887.113   -1578.8155    118.10061    172.45925    618.26785            0    908.82772   -6412.2014   -45.460554      16.9073      16.9207      16.9298            0            0            0    -5280.315    4179.3953    780.19569   -584.04613    4445.9122    1563.4178 
   89000    4843.3339     367.2004   -3753.8844    372.14858   -640.93801   -268.78943   -533.94527   -79.484515    4922.0702   -1565.9205    117.86325    191.02956    616.08973            0    924.98254   -6408.5062   -45.460554      16.9073      16.9207      16.9298            0            0            0     2774.454    3166.0819   -3432.9595   -6067.6514   -4061.5911   -1132.4107 
   90000    4843.3339    392.57655   -389.52456    397.86668   -625.85905   -227.99237   -255.50646   -68.727413    4935.7732   -1540.2817    113.04834    179.12331    622.25104            0    914.42269   -6407.3276   -45.460554      16.9073      16.9207      16.9298            0            0            0    546.12854   -2099.4548    371.85402   -3992.1555    4416.8753   -1593.2935 
   91000    4843.3339    366.73135    -330.7152     371.6732   -649.98036   -278.30716   -301.66724   -71.779517    4898.7807   -1586.2524    112.91822    204.81741    618.53645            0    936.27208   -6413.2536   -45.460554      16.9073      16.9207      16.9298            0            0            0    2706.8752     -1374.05    3068.9732    2885.9033   -1445.4943   -2432.5546 
   92000    4843.3339    337.07468   -2887.3065     341.6169   -620.00648   -278.38958   -482.33464   -79.794861    4919.4534   -1577.5664    133.58344      186.617    637.35948            0    957.55991   -6417.2249   -45.460554      16.9073      16.9207      16.9298            0            0            0    1670.8248    5351.6072   -4507.8079    206.26279   -7218.4424   -1649.7397 
   93000    4843.3339    360.13466    1259.2682    364.98762   -649.28126   -284.29363   -195.34516   -39.982029    4890.1245   -1568.2862    119.55089      182.381     617.0731            0    919.00499   -6418.4287   -45.460554      16.9073      16.9207      16.9298            0            0            0   -1383.6584    3781.8167   -962.08556    922.58101    3989.7419   -1134.5184 
   94000    4843.3339    342.69452   -516.41597    347.31247   -627.44715   -280.13468   -316.61175   -78.121712    4935.9745   -1556.6303    136.06226    184.85682    608.26411            0    929.18319   -6414.4832   -45.460554      16.9073      16.9207      16.9298            0            0            0   -3431.5844    3307.7849    4558.3484   -680.37739   -363.75111   -505.11941 
   95000    4843.3339    381.95891     1411.952    387.10596    -653.4511   -266.34514   -166.61182   -52.124055    4886.7999   -1576.8304    112.89541    178.44819    632.03572            0    923.37932   -6411.5063   -45.460554      16.9073      16.9207      16.9298            0            0            0   -5902.1747   -394.80471   -2722.3831   -940.97415    1137.5584    4039.2719 
   96000    4843.3339    383.85114   -944.90197    389.02369   -604.75526   -215.73157   -282.47477    -103.7315    4976.5142   -1537.9617    126.78606    169.11081    637.30955            0    933.20643   -6410.7444   -45.460554      16.9073      16.9207      16.9298            0            0            0    1683.5686   -5273.0656   -1656.6246   -4123.7846   -798.69914    2087.7778 
   97000    4843.3339    391.24823   -455.48838    396.52046   -642.46147   -245.94101   -278.11446   -86.347472    4936.4452   -1563.5463    123.41257    185.70786     611.9644            0    921.08482    -6413.644   -45.460554      16.9073      16.9207      16.9298            0            0            0    970.00625      813.713      4612.85   -1038.0639    853.48122   -1181.8825 
   98000    4843.3339    385.22384   -496.19417    390.41489    -625.0257   -234.61082   -269.65952     -93.3142    4941.4616   -1566.4755    125.44124    193.34726    622.66132            0    941.44981   -6414.6229   -45.460554      16.9073      16.9207      16.9298            0            0            0    1109.5183   -2635.3167   -2644.6841    -11.55402    1820.2754   -3297.3039 
   99000    4843.3339    342.73614   -135.60688    347.35466   -627.76217   -280.40751   -289.98611   -76.570259    4925.9967   -1562.6919    127.45249     180.0995    627.37778            0    934.92977   -6412.1184   -45.460554      16.9073      16.9207      16.9298            0            0            0   -652.66746   -1020.1627     2189.723    2929.5968    621.54855    -3957.966 
  100000    4843.3339    369.61144    -916.2905    374.59211   -619.20464   -244.61254   -309.33477   -24.077222    4880.2531   -1555.4069    133.39605    192.83986     609.9664            0    936.20231   -6411.5828   -45.460554      16.9073      16.9207      16.9298            0            0            0    1821.4926    1152.5881   -847.25678   -1912.1635   -437.08682   -399.62118 
  101000    4843.3339    343.97084    574.78968    348.60599   -608.05134   -259.44534   -218.84504   -57.370234    4934.0661   -1532.5379    124.70269    179.93975    619.84408            0    924.48652   -6409.2338   -45.460554      16.9073      16.9207      16.9298            0            0            0    653.49032   -217.35818    2736.1839   -2669.8543    1793.7221    2600.5012 
  102000    4843.3339    385.34708    14.417813    390.53979   -653.17158   -262.63178   -261.61338   -55.884914    4882.6345   -1585.6519     123.0598    187.58255      621.838            0    932.48035   -6412.4015   -45.460554      16.9073      16.9207      16.9298            0            0            0    1572.8781    5873.2255   -2768.6598   -270.20337    -5039.526    5352.9828 
  103000    4843.3339    371.20265   -1359.8399    376.20476   -649.97495   -273.77019   -369.82256   -75.180621    4919.3701   -1564.5844    119.15842    172.60282    622.84821            0    914.60946   -6408.7739   -45.460554      16.9073      16.9207      16.9298            0            0            0   -1308.7824     254.5658    4217.3104   -1725.1547   -1639.4055   -714.95949 
  104000    4843.3339    353.99974    900.97872    358.77003   -635.69317   -276.92314   -213.28246   -84.127481     4940.758   -1555.9105    115.97221    185.63104    618.61408            0    920.21733   -6412.5411   -45.460554      16.9073      16.9207      16.9298            0            0            0    -158.9817    101.46849   -1419.0796     2317.169   -2319.9726    2705.7398 
  105000    4843.3339    378.17383    2546.4899    383.26988   -638.13813   -254.86825   -74.996795   -66.267022    4928.2563   -1548.1777    112.47894    176.43334    621.12731            0     910.0396    -6410.167   -45.460554      16.9073      16.9207      16.9298            0            0            0   -3009.1455   -3887.7451    56.157717   -604.59698    3368.7003    4875.3664 
  106000    4843.3339    397.39873    505.57758    402.75384   -613.98777   -211.23393   -175.52243    -51.17159     4899.998   -1565.5072    127.52587    201.54461    622.44895            0    951.51942   -6414.3336   -45.460554      16.9073      16.9207      16.9298            0            0            0   -3160.7671   -4406.6627    1492.8323   -292.64039    1480.2856    329.08755 
  107000    4843.3339    359.01336    1996.2119    363.85122    -628.7807   -264.92948   -123.92694   -95.722904    4956.7701    -1551.373    103.06805    202.00068    617.52361            0    922.59234   -6412.4203   -45.460554      16.9073      16.9207      16.9298            0            0            0    2299.1315    2251.9472    2914.9352    5191.4016    1478.2804   -681.04623 
  108000    4843.3339    397.74164    -1765.876    403.10137   -616.58028   -213.47891   -338.21166   -45.090885    4887.1807   -1570.6294    133.17866    195.75541    625.11507            0    954.04914   -6412.7192   -45.460554      16.9073      16.9207      16.9298            0            0            0    1125.0379    3586.3474   -2375.0425   -4927.3655    -908.0551    537.79272 
  109000    4843.3339     351.9382   -3230.7366    356.68071    -632.1904   -275.50968   -503.71295   -54.118318    4917.0396    -1548.517    127.70691    168.55536    620.06433            0    916.32661   -6411.4383   -45.460554      16.9073      16.9207      16.9298            0            0            0   -2649.6933     -3388.67    1006.5281    1398.1066   -3924.6694   -7165.6469 
  110000    4843.3339     364.6275    1817.8556    369.54101   -631.99745   -262.45644    -134.0521   -63.768524    4939.1072   -1536.2898    105.58162    174.62716    624.08359            0    904.29237   -6411.6285   -45.460554      16.9073      16.9207      16.9298            0            0            0   -4146.9641    87.736391    1305.6633    165.32564    4149.7161    1138.5251 
  111000    4843.3339    353.06851   -2366.3376    357.82625   -594.87862   -237.05237   -404.19877   -83.425385    4953.6404   -1537.6868    129.40777    195.22044    618.17996            0    942.80817   -6407.9018   -45.460554      16.9073      16.9207      16.9298            0            0            0    241.15187    4485.9777    2376.8152   -556.63818   -6704.1007    161.72595 
  112000    4843.3339    345.58657    960.96165    350.24349   -628.77457   -278.53108    -210.6535   -78.249108    4911.5557   -1574.4577    124.90079    194.19105    626.59133            0    945.68316   -6407.7643   -45.460554      16.9073      16.9207      16.9298            0            0            0     580.4565   -1333.8283    2579.4138   -2301.4449    1847.6644    3336.6654 
  113000    4843.3339    375.16464   -2222.1014    380.22014   -649.47801   -269.25787   -426.21613   -96.211569    4943.5042   -1560.9093    101.73826    181.43498    628.25808            0    911.43132   -6408.2019   -45.460554      16.9073      16.9207      16.9298            0            0            0    4267.7118   -2056.4704    383.19658    -1221.865   -4839.5067    -604.9325 
  114000    4843.3339    390.05781   -1681.8081      395.314   -627.29321   -231.97921   -350.77383   -77.136798    4927.8396   -1556.8925    136.20608    177.98576    615.40743            0    929.59927   -6407.5953   -45.460554      16.9073      16.9207      16.9298            0            0            0   -2951.6645    642.75866    920.68481    4935.4304   -4329.0597   -5651.7951 
  115000    4843.3339    385.65781   -5126.4038    390.85471   -603.89808   -213.04337   -575.14719   -95.810813    4959.2503   -1547.6359    129.09091    188.27886    626.36805            0    943.73782   -6411.0754   -45.460554      16.9073      16.9207      16.9298            0            0            0    1492.7971    1952.5797    565.92359   -5839.9382   -1501.6664   -8037.6068 
  116000    4843.3339    364.33495   -625.00807    369.24452   -603.68072   -234.43621   -278.58369   -83.793082    4968.0815   -1527.7481    126.95083     168.8574    628.25917            0     924.0674   -6412.0366   -45.460554      16.9073      16.9207      16.9298            0            0            0    2587.5042   -1596.3228   -277.52243   -4834.4698    7550.0148   -4590.5692 
  117000    4843.3339    368.81364     629.1804    373.78356   -620.25167   -246.46812   -202.02593   -66.065839     4922.307    -1551.619    112.89222    188.29936    630.17578            0    931.36736   -6407.8602   -45.460554      16.9073      16.9207      16.9298            0            0            0    -24.73485   -1244.9094   -920.60929    1634.5346    765.29564   -512.28908 
  118000    4843.3339    360.94082    3793.8788    365.80465   -606.90095   -241.09631    26.884539   -78.916976    4979.2616   -1511.2209    112.35037    166.42384    625.54572            0    904.31993   -6411.5655   -45.460554      16.9073      16.9207      16.9298            0            0            0   -489.31047    1558.7996    73.638783    6275.3885    4044.2426    1062.0053 
  119000    4843.3339    358.88168    1535.7284    363.71776   -610.63742   -246.91966    -138.4434   -42.258483    4915.5989   -1536.6391    127.38691    179.49709    619.11765            0    926.00165   -6409.9795   -45.460554      16.9073      16.9207      16.9298            0            0            0   -3744.8343    3248.7323    4674.3353    4655.1337   -884.52485    836.57641 
  120000    4843.3339    380.21421   -1696.7182    385.33775   -638.50335    -253.1656   -373.01338   -70.851284     4881.523   -1595.8959     133.7192    199.71223    623.96113            0    957.39256   -6406.5677   -45.460554      16.9073      16.9207      16.9298            0            0            0   -2092.6415   -148.86336    558.63331   -1285.0705   -7094.1601    3289.0762 
  121000    4843.3339    392.03083   -103.42198    397.31361   -633.25886   -235.94525   -243.25047   -82.304568    4903.7764   -1587.3342    114.94629    206.77569    632.35333            0    954.07532    -6408.806   -45.460554      16.9073      16.9207      16.9298            0            0            0    1295.9578    4339.3427   -3397.0306    -1088.955    147.19723    631.49186 
  122000    4843.3339    356.70616   -103.18432    361.51293   -627.08772    -265.5748   -272.86323   -76.691656     4909.078   -1581.3367    114.18319    215.18804    624.87779            0    954.24901   -6413.7231   -45.460554      16.9073      16.9207      16.9298            0            0            0   -3230.5424    1419.6367    180.30107   -1104.5815   -713.28676    1508.3153 
  123000    4843.3339    359.03719   -2807.3601    363.87537   -631.17893   -267.30357   -465.60161   -72.205819    4913.2509   -1567.3845     131.9637    177.36127    626.88065            0    936.20561   -6408.4296   -45.460554      16.9073      16.9207      16.9298            0            0            0   -88.474324   -1130.4976    -3343.689   -3324.7351    -2760.585   -2336.7603 
  124000    4843.3339    378.43081   -2990.7798    383.53032   -639.55156   -256.02125   -467.27515    -81.11308    4920.6071   -1569.4011    105.60795    193.06987    631.17167            0    929.84949    -6408.895   -45.460554      16.9073      16.9207      16.9298            0            0            0    1996.4233    -222.5024    492.41711   -3096.1813   -4220.0559   -1656.1023 
  125000    4843.3339    395.51886   -2272.3193    400.84864   -660.48346   -259.63481   -420.14022    -76.85709    4895.1954   -1589.9342    131.24422    170.62149    627.58502            0    929.45072   -6408.2725   -45.460554      16.9073      16.9207      16.9298            0            0            0    1872.4662      2905.26    1931.7317    1994.2089   -4408.0371   -4403.1298 
  126000    4843.3339    368.76716    3357.1322    373.73645   -626.83017   -253.09371   -15.962487   -41.555887     4897.245   -1553.6499    121.92831    183.91855    620.97283            0    926.81969   -6409.3389   -45.460554      16.9073      16.9207      16.9298            0            0            0   -4394.7981    461.94931    710.45684   -4279.1748    5370.8184     8979.753 
  127000    4843.3339    397.80663   -782.92826    403.16724   -633.26423   -230.09699   -285.39917   -90.814515    4936.1698   -1563.0676    116.96195    181.10677     631.7347            0    929.80342   -6408.4229   -45.460554      16.9073      16.9207      16.9298            0            0            0   -1115.3274   -2789.1141    1727.7825   -569.07179   -471.25777   -1308.4552 
  128000    4843.3339    376.17142    5034.4678    381.24049   -640.24925   -259.00877    96.601155   -64.472419    4923.3471   -1552.3798    122.45401    159.55157    630.12496            0    912.13054   -6411.2544   -45.460554      16.9073      16.9207      16.9298            0            0            0    -858.0264    1385.9282   -397.70303   -2269.6394    8419.2034    8953.8394 
  129000    4843.3339     395.5651    79.888255     400.8955    -611.5728   -210.67729   -205.03438   -81.013634    4918.6476   -1573.0626    142.08947    194.38021    625.02008            0    961.48977   -6410.6965   -45.460554      16.9073      16.9207      16.9298            0            0            0    971.84322    141.56112   -1427.1712   -5282.1073     3798.576    1723.1961 
  130000    4843.3339    397.15179   -4010.9142    402.50358   -632.43998    -229.9364   -513.24756   -52.266646    4886.5059   -1573.8339    131.78799    183.19624    626.40971            0    941.39395   -6408.0732   -45.460554      16.9073      16.9207      16.9298            0            0            0   -1218.9152   -2090.0001   -2606.3267   -1558.6546   -6746.3433   -3727.7448 
  131000    4843.3339    365.20591    1103.1999    370.12721   -633.92222   -263.79501   -185.87042   -74.961775    4909.3868   -1575.4669    124.16634    194.01115    623.36715            0    941.54463   -6409.8919   -45.460554      16.9073      16.9207      16.9298            0            0            0   -1307.3872   -190.24344   -2057.3309   -301.67896    5470.5655    -1859.287 
  132000    4843.3339    365.48247   -1412.0673     370.4075   -614.24503   -243.83754   -343.57899   -45.867355    4900.3664   -1551.8033    131.81192    173.89378    631.85255            0    937.55825   -6406.3023   -45.460554      16.9073      16.9207      16.9298            0            0            0   -930.41905    3322.9036   -2029.2963    2216.2586   -5475.0423   -977.41826 
  133000    4843.3339    386.34583   -966.60586      391.552   -627.44008   -235.88808   -304.16434   -66.400511    4907.2167   -1564.6101    133.72695     181.2266    622.21642            0    937.16997   -6405.4263   -45.460554      16.9073      16.9207      16.9298            0            0            0    3938.3282   -1221.5863    1898.3093    1018.8333   -3929.3536    10.702708 
  134000    4843.3339    367.01624   -3885.9159    371.96194   -633.45916   -261.49721    -535.9791   -74.168734    4931.6734   -1548.9435    123.21017    155.48398     636.7902            0    915.48434   -6406.4482   -45.460554      16.9073      16.9207      16.9298            0            0            0    933.05088    58.596179   -219.23232   -10441.233   -715.65755   -500.85671 
  135000    4843.3339    367.77618    954.01257    372.73212   -633.82099   -261.08888   -193.70214   -77.846189    4933.9159   -1557.1513    117.48922    180.56207    625.27904            0    923.33034   -6413.2211   -45.460554      16.9073      16.9207      16.9298            0            0            0    2331.0089    2474.7574   -474.93434    2719.6124    3921.2404   -3778.8151 
  136000    4843.3339    356.53752    450.43944    361.34201   -601.51984   -240.17783   -208.36102   -95.267893    4943.6847   -1559.6182    126.91267    203.22301    627.96266            0    958.09835    -6408.035   -45.460554      16.9073      16.9207      16.9298            0            0            0   -1300.7503   -450.49343   -1499.3623    1000.8069   -50.102054    400.61347 
  137000    4843.3339    381.64402     715.0479    386.78683   -606.47331   -219.68648   -169.17903   -58.357581    4926.6752    -1539.892    128.56167    176.85942    627.99757            0    933.41866   -6408.2096   -45.460554      16.9073      16.9207      16.9298            0            0            0   -1906.4565     3600.201    1379.5035    1580.2795    22.379938    542.48426 
  138000    4843.3339    366.22188   -1007.3891    371.15687   -621.91569   -250.75882   -321.91581   -75.338279    4925.2196   -1556.4848    121.67104    176.88715    636.01088            0    934.56907   -6406.3661   -45.460554      16.9073      16.9207      16.9298            0            0            0    -3214.846   -151.52987   -416.17791   -689.44993   -3073.5063    740.78887 
  139000    4843.3339    362.99542    2356.0553    367.88693   -642.38002   -274.49309   -108.07299   -81.174531    4914.6735   -1570.1152    117.62899    193.82052    616.28563            0    927.73513   -6403.6142   -45.460554      16.9073      16.9207      16.9298            0            0            0     4240.335    3774.6617     3328.365    695.75852    6838.3832   -465.97585 
  140000    4843.3339    391.00333   -1158.2547    396.27226   -635.11023   -238.83797   -320.65135   -92.460439    4925.5225   -1572.9393    128.60681    186.94286     622.2794            0    937.82907   -6406.0014   -45.460554      16.9073      16.9207      16.9298            0            0            0    1461.9517    1026.6316   -2296.9677   -3332.7257   -1986.0418    1844.0035 
  141000    4843.3339    402.96476   -3198.7001    408.39488   -605.89186   -197.49698   -423.43735   -63.815288    4913.5563   -1554.8301    128.35146     193.8338    626.75296            0    948.93822   -6404.5711   -45.460554      16.9073      16.9207      16.9298            0            0            0    4092.1217   -1322.9315    3837.6593   -5439.6887   -3973.1677   -183.24388 
  142000    4843.3339    379.58483    -4720.529     384.6999   -604.45873   -219.75883   -553.19367   -95.107248    4966.3415   -1543.1592    135.35374    182.17995    621.16678            0    938.70047   -6414.3934   -45.460554      16.9073      16.9207      16.9298            0            0            0   -1195.1338    1566.2298    1968.8991   -8612.1309   -3074.5334   -2474.9229 
  143000    4843.3339    337.24946   -1605.6861    341.79403   -605.45553   -263.66149   -377.07922    -62.60944    4927.3212   -1545.4774    129.12781    186.20118    624.69291            0     940.0219   -6410.1892   -45.460554      16.9073      16.9207      16.9298            0            0            0    1295.1857    1075.4997   -453.24558   -1904.0221   -1203.6005   -1709.4358 
  144000    4843.3339    369.81277   -4085.3153    374.79615    -601.1128   -226.31665   -514.88313   -61.427671    4945.2036   -1528.3878    137.81591    179.83991     609.6192            0    927.27503   -6412.1638   -45.460554      16.9073      16.9207      16.9298            0            0            0    2661.7158    3445.9245    2210.9236   -6650.7823    -1435.093   -4170.0706 
  145000    4843.3339    387.45099    -4264.376    392.67206   -618.69153   -226.01947   -527.23392   -75.143764    4941.7818   -1544.1862    130.67304    179.36365    615.45798            0    925.49467   -6410.8242   -45.460554      16.9073      16.9207      16.9298            0            0            0   -1834.1092   -5418.5841   -1040.2297   -6056.6299   -5232.2363   -1504.2618 
  146000    4843.3339    392.87824    1895.9528    398.17244   -688.29189   -290.11946   -156.19872   -60.949862    4909.1193   -1566.9985    102.43077    155.47514    620.80067            0    878.70658   -6415.1679   -45.460554      16.9073      16.9207      16.9298            0            0            0   -1181.7913    2308.7139   -1330.1553   -3642.7738    7191.8194    2138.8127 
  147000    4843.3339    422.08359    428.97925    427.77134   -606.01288   -178.24154   -147.94057   -58.295045    4922.5947   -1546.6875    137.59839    182.87605    620.20017            0    940.67462   -6410.9872   -45.460554      16.9073      16.9207      16.9298            0            0            0   -1102.4774   -1375.4394    -524.8379    493.74955    2465.3173   -1672.1291 
  148000    4843.3339    382.15459   -1475.6427    387.30428   -646.24629   -258.94201   -363.17412   -58.090586    4913.1249   -1554.4109    115.35033    170.14559    622.66866            0    908.16458   -6409.4452   -45.460554      16.9073      16.9207      16.9298            0            0            0    1296.6224   -307.79487   -935.31012    99.382155   -3486.5227   -1039.7876 
  149000    4843.3339    384.69756    8321.8618    389.88152   -632.37427   -242.49276    345.32243   -57.502555    4906.2743   -1564.1163    108.60651    190.46155    632.67393            0    931.74199    -6412.888   -45.460554      16.9073      16.9207      16.9298            0            0            0     547.4642    2821.0086    584.59271    9731.4105     8647.369    6586.8059 
  150000    4843.3339    364.28653   -1899.4804    369.19545   -629.16748   -259.97203   -394.14193   -60.142201    4931.9025   -1539.2009    118.03462    169.17802    622.82075            0    910.03338   -6410.9612   -45.460554      16.9073      16.9207      16.9298            0            0            0   -871.53453    782.49173     1106.818   -408.62261   -5538.0828    248.26427 
  151000    4843.3339    397.62678    235.64593    402.98496   -642.40348   -239.41852   -222.77365   -82.307944    4926.9708   -1568.2774    119.09507    184.38324    622.39565            0    925.87397   -6412.9403   -45.460554      16.9073      16.9207      16.9298            0            0            0   -2404.6094     4432.988    615.25115   -1627.2525    1953.7077    380.48258 
  152000    4843.3339    366.36031    86.284931    371.29717   -616.60224   -245.30507   -239.21033   -92.566812    4935.0791   -1567.0715    119.54369    201.72322    629.20231            0    950.46922   -6409.5837   -45.460554      16.9073      16.9207      16.9298            0            0            0    -6932.596    4271.5611    4559.8865    2877.1501   -2575.2391   -43.056207 
  153000    4843.3339    373.93404    4199.3619    378.97295   -628.60198   -249.62903    46.993137   -79.849982    4927.8433   -1562.1593    126.35299    180.55786    626.64642            0    933.55727   -6410.1526   -45.460554      16.9073      16.9207      16.9298            0            0            0    597.44749   -269.57509   -1334.6477    2449.8407    3958.2679     6189.977 
  154000    4843.3339    350.08124    574.14315    354.79873   -627.10348   -272.30475   -231.75011   -58.591575    4924.4203   -1543.8524    108.71283    187.60561    620.43051            0    916.74896   -6409.6812   -45.460554      16.9073      16.9207      16.9298            0            0            0    2401.9436   -1499.4886    2041.3734   -401.84427    1289.7886     834.4851 
  155000    4843.3339    354.87821   -1845.0281    359.66034   -634.66983   -275.00949   -405.33316   -86.101639    4914.7901   -1578.7028    111.77907    212.19013    620.06373            0    944.03293   -6407.3913   -45.460554      16.9073      16.9207      16.9298            0            0            0    822.14968    904.64834    2957.0798   -991.01772   -3334.2601   -1209.8066 
  156000    4843.3339    395.93938     1798.907    401.27483   -654.17436   -252.89953   -125.83363   -79.857293    4920.1879   -1570.5051    114.14284    189.94747     612.2404            0    916.33071   -6410.8357   -45.460554      16.9073      16.9207      16.9298            0            0            0   -4920.6832      4252.64   -2079.9519   -3602.6925    3777.2099    5222.2037 
  157000    4843.3339    349.36606    3402.3357    354.07391   -625.49823   -271.42432   -31.100144   -80.961209    4939.1947   -1552.9745    121.17691    180.97129    625.32806            0    927.47625   -6411.2079   -45.460554      16.9073      16.9207      16.9298            0            0            0   -2127.1311   -3759.6955   -1233.7544    5790.0459   -1076.9835    5493.9447 
  158000    4843.3339    347.75682    720.84694    352.44299   -584.92062   -232.47763   -181.56057   -62.797111    4941.1206   -1531.9413     129.3866    184.00503    633.62901            0    947.02064   -6410.2647   -45.460554      16.9073      16.9207      16.9298            0            0            0    -171.3831    63.945532    -589.9721    7023.2779   -4692.9589   -167.77815 
  159000    4843.3339     387.5935   -2690.5787    392.81649   -607.12498   -214.30849   -404.35767    -66.34039    4929.7715   -1542.6528    136.06676     171.5734    627.88765            0    935.52781   -6406.0839   -45.460554      16.9073      16.9207      16.9298            0            0            0   -885.93165    1884.8955   -1388.9805    5195.4355   -9018.4689   -4248.7027 
  160000    4843.3339     412.0027    -285.4978    417.55461   -656.78826   -239.23366   -259.39981   -72.401322    4939.0854   -1540.4794    113.29651    146.97629    623.41837            0    883.69117   -6407.1636   -45.460554      16.9073      16.9207      16.9298            0            0            0   -3072.3224   -1716.3396   -153.88465   -1594.1325   -1187.3144    1924.9535 
  161000    4843.3339    374.03229    253.10374    379.07253   -652.06418   -272.99165   -255.11366   -87.959542    4921.2852   -1576.4803    111.37019    189.81659    623.22935            0    924.41612    -6409.806   -45.460554      16.9073      16.9207      16.9298            0            0            0    4476.7782   -612.96956   -2571.3652    49.332182    1667.1746   -957.19555 
  162000    4843.3339    380.54087   -1054.7232    385.66882    -628.7378   -243.06897   -317.56941    -50.38846    4895.0756   -1562.5492    127.75511    180.01168    626.04466            0    933.81145   -6407.2364   -45.460554      16.9073      16.9207      16.9298            0            0            0    500.42542   -391.15669   -897.68998   -2760.0639    1685.5792   -2089.6848 
  163000    4843.3339     389.3813    1217.0125    394.62837   -634.10222   -239.47385    -153.5101   -35.948579    4894.2308   -1545.2329    111.20623    178.34081    621.58364            0    911.13067   -6403.5151   -45.460554      16.9073      16.9207      16.9298            0            0            0   -1769.2564   -1136.1675    -1903.436    828.21282    3780.5165   -957.69187 
  164000    4843.3339    355.44092    781.87277    360.23063    -622.2944   -262.06377   -206.83614   -62.399741    4907.1809   -1563.7988    117.19324    195.33936    628.97177            0    941.50437   -6408.5799   -45.460554      16.9073      16.9207      16.9298            0            0            0     2516.356    4718.3895   -1491.3938   -386.60081    1196.2466    1535.9726 
  165000    4843.3339    370.99911    2411.2074    375.99848   -616.98065   -240.98218   -70.666402   -54.618845     4914.657   -1543.4078    105.11362    198.87333    622.44015            0     926.4271    -6403.446   -45.460554      16.9073      16.9207      16.9298            0            0            0   -1359.1273   -2986.1114    1157.0634    210.99609    1660.7238    5361.9024 
  166000    4843.3339    403.90182    1402.5236    409.34457   -624.50854   -215.16397   -116.09663    -53.71895    4885.8258   -1579.4437    121.34126    211.35928    622.23465            0    954.93519   -6411.5506   -45.460554      16.9073      16.9207      16.9298            0            0            0   -83.296085    1192.6536    3635.1744    981.68133   -1925.7164     5151.606 
  167000    4843.3339    357.61681   -3158.9839    362.43584   -611.26001   -248.82417   -471.95918     -82.7597    4916.4752    -1575.363    133.95263    206.85681    623.29352            0    964.10296   -6409.0785   -45.460554      16.9073      16.9207      16.9298            0            0            0   -5668.8618   -5135.1912   -1309.3086     161.0823   -3504.3581   -6133.6759 
  168000    4843.3339    374.12596   -2321.5744    379.16746    -614.5653   -235.39784   -399.38238    -87.46782    4957.0456   -1541.3628    125.15219    172.75692    628.88843            0    926.79755   -6410.9406   -45.460554      16.9073      16.9207      16.9298            0            0            0    89.650822    3547.9509    2865.2249   -1894.7087   -3696.0171   -1373.9973 
  169000    4843.3339    340.94022   -3000.5758    345.53453   -606.00492   -260.47039   -472.41624   -44.088103    4908.8237   -1543.8272    128.59244    187.89295    621.33689            0    937.82228   -6408.5628   -45.460554      16.9073      16.9207      16.9298            0            0            0   -899.67347    1059.1197   -1641.9996    -2774.526     -867.865   -5359.3365 
  170000    4843.3339    382.29208   -390.72081    387.44363   -615.08779   -227.64417   -255.24275   -79.430253    4949.5183   -1537.4941    120.02159    178.12177     624.2629            0    922.40626   -6407.5821   -45.460554      16.9073      16.9207      16.9298            0            0            0    1419.9753   -2638.8265    1704.8865   -1089.3683   -854.10206    771.30791 
  171000    4843.3339    360.82805    369.44717    365.69036   -618.57625   -252.88588   -226.78996   -37.016697    4924.2082   -1521.2579    110.87092    163.54056    628.27019            0    902.68168   -6408.4494   -45.460554      16.9073      16.9207      16.9298            0            0            0    -1335.449   -2846.7026    672.91195    1297.8308    1450.7247   -1640.2139 
  172000    4843.3339    358.50614    1026.5563    363.33716   -612.38841   -249.05126    -176.5404   -38.074297    4903.3432   -1545.0389    116.87578    197.00482     618.7699            0     932.6505   -6410.3078   -45.460554      16.9073      16.9207      16.9298            0            0            0    1821.6145   -3353.6413   -1464.5188   -484.00335    6.8753735    3556.7968 
  173000    4843.3339    316.53447    2186.2418     320.7999   -619.18873   -298.38883   -143.96351   -50.024621    4920.4893   -1535.3778    113.21166    178.44454    624.53282            0    916.18902   -6405.8425   -45.460554      16.9073      16.9207      16.9298            0            0            0     1.548317    2470.2904   -2734.7814   -1036.0133    4907.5424    2687.1963 
  174000    4843.3339    367.39054    1777.4863    372.34128   -620.31225   -247.97097   -122.41813   -62.245838    4940.5768   -1527.9116    112.23257    178.72661    616.64013            0    907.59931   -6406.2425   -45.460554      16.9073      16.9207      16.9298            0            0            0   -191.38503   -402.05464   -5474.7735    1739.3113    361.79068    3231.3569 
  175000    4843.3339    366.97289   -118.32582      371.918   -643.12457   -271.20657   -279.56452   -72.464618    4918.7413   -1563.3906    114.25998    188.68667    617.31936            0    920.26601   -6409.6672   -45.460554      16.9073      16.9207      16.9298            0            0            0    1483.0692    287.96212   -2303.5137   -2444.8239    159.55354    1930.2929 
  176000    4843.3339     376.9956    679.34222    382.07577   -625.98749   -243.91171   -195.92634   -75.213936    4964.7483   -1523.8326    99.204605     187.9518    610.68872            0    897.84512    -6413.367   -45.460554      16.9073      16.9207      16.9298            0            0            0    -954.0507   -2462.8914    2184.2225    568.80923    4458.1392   -2988.9218 
  177000    4843.3339    351.02531    388.71489    355.75552   -631.93153   -276.17601   -248.71912   -64.628651    4904.1459   -1567.6226     122.5857    187.13901    625.96632            0    935.69102   -6407.1398   -45.460554      16.9073      16.9207      16.9298            0            0            0     1140.699   -1381.8845   -1431.2205    5585.7167   -6224.6158    1805.0438 
  178000    4843.3339    350.89216   -4540.4098    355.62058   -588.67176   -233.05118   -553.76329   -83.029851    4948.2021   -1540.3614    129.58884    192.26825    629.83255            0    951.68964   -6405.5336   -45.460554      16.9073      16.9207      16.9298            0            0            0     3086.313    3250.6579    3533.1779   -6867.3955    -3443.343    -3310.491 
  179000    4843.3339    372.87792    1064.1102    377.90261   -626.09257   -248.18996   -173.02648   -77.835973    4952.3215   -1534.3736    119.04712    165.51603    623.71785            0    908.28101   -6408.8591   -45.460554      16.9073      16.9207      16.9298            0            0            0   -344.84154    4540.6154    2496.2209   -732.57804    -2453.135    6378.0435 
  180000    4843.3339    377.03679    3661.8564    382.11752   -648.10004   -265.98252   -7.3270818   -61.745975    4900.3792   -1571.2797    106.19778    191.36101    625.62089            0    923.17968   -6409.9129   -45.460554      16.9073      16.9207      16.9298            0            0            0   -2006.3823    -790.6669   -128.87127     2567.879    2434.0174    5983.6729 
  181000    4843.3339    347.69885    80.573719    352.38424   -590.59766   -238.21342   -232.52209   -80.493105    4922.5143   -1563.9649    146.66404    194.88251    631.82069            0    973.36723   -6405.9861   -45.460554      16.9073      16.9207      16.9298            0            0            0     3540.556    760.46214    1550.1677    8614.4896   -5597.8691   -2774.8993 
  182000    4843.3339    387.02513   -4307.0148    392.24046     -594.366   -202.12554   -506.35178   -87.484018    4972.2291   -1524.0283    121.75748    185.55424    622.35059            0    929.66231   -6408.7734   -45.460554      16.9073      16.9207      16.9298            0            0            0   -728.52433    2208.5733    4535.1135   -5539.6322   -1695.4454   -5685.9668 
  183000    4843.3339    380.54489    1123.6282    385.67289   -625.83777   -240.16488   -160.79733   -60.723658    4936.1243   -1528.4285    120.09143     159.9013    622.59802            0    902.59075   -6403.8291   -45.460554      16.9073      16.9207      16.9298            0            0            0   -5328.8461    1449.5839   -5296.6138     957.9893    3720.8535   -1307.9581 
  184000    4843.3339    373.42828     1792.251    378.46038   -619.86974   -241.40936    -114.8136   -50.153423    4907.0704    -1552.616    107.56672    200.83013    624.34937            0    932.74622   -6409.5329   -45.460554      16.9073      16.9207      16.9298            0            0            0   -394.03867    802.95081   -352.75842   -119.26847    245.14666    5250.8749 
  185000    4843.3339     377.4318    3635.6494    382.51785   -638.24437   -255.72653    1.0777778    -42.66749    4895.9216   -1556.6785     119.4001    184.47525    614.55881            0    918.43416   -6409.9326   -45.460554      16.9073      16.9207      16.9298            0            0            0    4276.6403     2385.282   -3296.6832    2107.4088    3175.1778    5624.3617 
  186000    4843.3339    378.79505     930.0385    383.89947   -635.54818   -251.64871   -185.95539   -64.479181    4896.3532   -1575.5456    118.92981    197.34686    623.72072            0    939.99738   -6407.4196   -45.460554      16.9073      16.9207      16.9298            0            0            0    950.06257   -3324.4065    1783.9683    444.23044   -3063.3443    5409.2294 
  187000    4843.3339    383.18254    3061.4867    388.34608   -640.70486   -252.35878   -36.110492   -66.120397    4919.8747   -1554.0767    111.15737    185.74636    616.46807            0     913.3718    -6407.831   -45.460554      16.9073      16.9207      16.9298            0            0            0   -708.13353    2077.5965    879.35128   -698.47989    934.41132    8948.5287 
  188000    4843.3339    372.63832   -1494.9782    377.65978   -644.59012   -266.93034   -372.52822   -63.180324    4944.3073   -1532.0006    107.01424     167.4689    612.92736            0    887.41051   -6413.1276   -45.460554      16.9073      16.9207      16.9298            0            0            0   -2415.6286    322.50228   -3315.1404   -963.07381   -2186.6276   -1335.2333 
  189000    4843.3339    373.28605    3142.9408    378.31623   -616.76282   -238.44659   -16.444785   -44.694321    4911.1427   -1544.5731     126.4006    178.75853    622.65117            0    927.81031   -6411.0215   -45.460554      16.9073      16.9207      16.9298            0            0            0    488.17267   -217.90214     1095.718     150.2484    2536.1527    6742.4211 
  190000    4843.3339    386.45969   -2665.1261     391.6674   -616.64978   -224.98238   -413.23372   -93.715616    4956.6807   -1542.6858    106.13905    196.61863    623.27833            0    926.03602   -6405.6508   -45.460554      16.9073      16.9207      16.9298            0            0            0   -4343.3743    3804.4125   -482.35305   -3171.2726   -3158.5223   -1665.5834 
  191000    4843.3339    359.65391    6295.3716    364.50039   -602.05443   -237.55403     207.1199   -82.768331    4968.3462   -1520.1796     119.8265    176.20133    622.09733            0    918.12516   -6405.7574   -45.460554      16.9073      16.9207      16.9298            0            0            0   -312.16009    801.26651    3176.2422    6710.4499     5087.373     7088.292 
  192000    4843.3339    358.02935   -2939.1978    362.85394   -630.39144    -267.5375    -475.1479   -103.54309    4951.5297   -1564.2289    116.10855     199.9762    617.75276            0     933.8375   -6412.2156   -45.460554      16.9073      16.9207      16.9298            0            0            0    1193.0061   -2401.6127   -1281.3854   -3181.2201   -4726.7076   -909.66548 
  193000    4843.3339     367.6407   -3063.1657    372.59481   -615.29615   -242.70134   -459.06822   -80.958034    4940.8377   -1550.6132    127.98564    179.49189    627.83949            0    935.31702   -6410.4928   -45.460554      16.9073      16.9207      16.9298            0            0            0    4223.7268    5003.8804   -2662.7768   -687.58969   -4217.4024   -4284.5049 
  194000    4843.3339    327.54066   -509.40748    331.95441   -646.65827   -314.70386   -350.68588   -95.102695    4964.0959   -1544.9596    104.87036    181.71307    611.71794            0    898.30137   -6413.9528   -45.460554      16.9073      16.9207      16.9298            0            0            0     2672.805   -3571.7318   -1731.4511   -1542.5627    900.23096    -885.8907 
  195000    4843.3339    403.28523   -2042.5273    408.71967   -640.90702   -232.18735   -376.46139   -62.873112    4904.1675   -1567.0872    129.62263    176.72421    619.83336            0    926.18021   -6408.3816   -45.460554      16.9073      16.9207      16.9298            0            0            0    1021.7186    1611.6578   -572.23862    516.74842   -3358.2583   -3286.0722 
  196000    4843.3339    388.91762    284.42847    394.15844    -634.5897   -240.43126   -220.34064   -75.722722    4951.6946   -1536.2109    119.48171    162.20077    619.93876            0    901.62125   -6412.1828   -45.460554      16.9073      16.9207      16.9298            0            0            0    1714.5165    3071.5807   -761.14845   -1997.8578    3026.5501   -175.40693 
  197000    4843.3339    367.89992   -2084.1454    372.85752    -604.6179   -231.76038   -378.97411   -71.221775    4937.0464    -1541.453    128.56853    179.26713    628.99943            0    936.83509   -6407.2776   -45.460554      16.9073      16.9207      16.9298            0            0            0    639.24734   -647.46423    -1087.315   -817.16375   -7077.8944    1642.6221 
[...]
 9955000    4843.3339    388.18889     715.6126     393.4199   -602.75909   -209.33919   -158.79186   -95.035155    4960.1223   -1543.8078    114.99592    199.48905    626.56377            0    941.04874    -6408.895   -45.460554      16.9073      16.9207      16.9298            0            0            0    4187.8996    1631.8198   -213.42324    -758.5387   -310.57098    3215.9475 
 9956000    4843.3339    388.31203   -2290.9049     393.5447   -583.07101   -189.52631   -351.34451   -63.545513    4950.4015   -1521.8099    135.65573    178.59446    624.48866            0    938.73885   -6408.6658   -45.460554      16.9073      16.9207      16.9298            0            0            0   -2371.1041   -1811.5052    1633.6224   -6903.4407    2294.9687   -2264.2427 
 9957000    4843.3339    364.14684   -1869.5084    369.05388   -627.64067   -258.58679   -390.63963   -55.732972     4891.922   -1567.8279    135.83393    175.16108    629.19226            0    940.18728    -6404.017   -45.460554      16.9073      16.9207      16.9298            0            0            0   -3579.7872    432.62674    2316.0575    520.86072   -6388.1308    258.74483 
 9958000    4843.3339     388.2904    6029.0312    393.52277   -606.73915   -213.21638    212.64458   -71.127443    4948.9188   -1532.4456    115.82927    180.70612    629.17111            0     925.7065    -6410.237   -45.460554      16.9073      16.9207      16.9298            0            0            0    -2134.409   -1366.0009    58.178582    5115.7484      8395.62    4575.7251 
 9959000    4843.3339    363.53398    2063.8886    368.43276   -606.17345   -237.74069   -91.957802   -76.673526    4940.7958   -1544.4113    136.86158    182.34499    619.03129            0    938.23786   -6408.5335   -45.460554      16.9073      16.9207      16.9298            0            0            0   -2341.1708    -1281.734    5800.4916   -170.92058      4967.99    1394.5965 
 9960000    4843.3339    367.48603   -1816.8962    372.43805   -631.77362   -259.33557   -387.67213   -77.658967    4898.3015   -1584.2514    123.30148    201.96966    627.20664            0    952.47779   -6404.8939   -45.460554      16.9073      16.9207      16.9298            0            0            0   -1104.3618    962.51761     -814.931   -5862.5589    696.48478    -284.6144 
 9961000    4843.3339     374.9689   -538.77848    380.02177   -602.99197   -222.97021   -261.02686   -92.949533    4944.8734   -1551.8736    121.05737    196.28148    631.54276            0    948.88161   -6403.7975   -45.460554      16.9073      16.9207      16.9298            0            0            0    2430.6152    3118.0423    4091.9594   -8817.6883    3906.8992    3294.4536 
 9962000    4843.3339    383.07798   -2124.2169    388.24012   -619.52906   -231.28894   -381.33312   -68.466702    4894.8537   -1578.6788    135.68506    186.52812    636.93654            0    959.14972   -6405.0658   -45.460554      16.9073      16.9207      16.9298            0            0            0    1672.9187   -1051.9997    416.06927    279.51184   -3185.9722   -3466.1904 
 9963000    4843.3339    353.48887    601.46606    358.25228   -618.45403   -260.20175   -217.71716   -60.225764    4904.0922   -1564.7263    132.95348    188.94826    624.37051            0    946.27225   -6408.5927   -45.460554      16.9073      16.9207      16.9298            0            0            0   -1465.8529    2017.0337    5929.7534    2947.6448   -1106.2838   -36.962837 
 9964000    4843.3339    382.46093   -3764.3541    387.61475   -596.46003   -208.84528   -474.74064   -87.131615    4968.5976   -1521.9299    114.87264    192.28607    618.31119            0     925.4699    -6403.396   -45.460554      16.9073      16.9207      16.9298            0            0            0    549.04643   -770.34723    2164.8129   -5633.4435   -1928.7184   -3730.9005 
 9965000    4843.3339    367.72296   -1234.5808    372.67818   -606.17523   -233.49706   -320.70174    -67.08958    4928.4457   -1543.2678    134.48543    185.17094    617.43621            0    937.09258   -6404.6239   -45.460554      16.9073      16.9207      16.9298            0            0            0    3305.5412    4316.9793   -821.20385   -3014.6259    4138.6889   -4827.8054 
 9966000    4843.3339    384.65859    2535.2111    389.84203    -628.2692   -238.42717   -59.352387   -78.729854    4950.4736   -1535.4836    121.47737    168.67666     617.0604            0    907.21442   -6407.2274   -45.460554      16.9073      16.9207      16.9298            0            0            0   -4296.2218    848.60383   -752.85048    1228.9394     4958.732     1417.962 
 9967000    4843.3339    356.59297   -3428.8335    361.39821   -616.00414   -254.60593   -496.80178   -76.657508    4916.7839   -1564.3003    127.35202    203.32992    617.61426            0     948.2962   -6404.4267   -45.460554      16.9073      16.9207      16.9298            0            0            0    1667.6854    3415.4232    617.50852   -5392.8125   -3067.7305   -1825.9576 
 9968000    4843.3339    375.12418   -1114.1282    380.17914   -611.77326   -231.59412   -310.29063   -47.727311    4899.7112   -1556.6153    148.70937    166.01071    630.12192            0      944.842   -6408.5991   -45.460554      16.9073      16.9207      16.9298            0            0            0   -2444.7733   -1023.0939    1143.9156   -1621.1494    2646.8329    -4368.068 
 9969000    4843.3339    372.62535   -77.888518    377.64663   -643.34677   -265.70014    -271.2018   -53.597457    4886.1394   -1572.7215    121.95053    179.12463    628.29954            0     929.3747   -6405.2634   -45.460554      16.9073      16.9207      16.9298            0            0            0     3596.009    3093.6275    -683.9019   -2278.1027   -1786.2952    3830.7323 
 9970000    4843.3339    353.85061   -6341.8332     358.6189   -610.74534   -252.12645    -700.0822   -67.144612    4907.2672   -1568.2381    140.83277     188.1603    628.49974            0     957.4928   -6408.3607   -45.460554      16.9073      16.9207      16.9298            0            0            0    421.74736    544.25255   -1430.1123   -6097.4514   -4968.7532   -7959.2951 
 9971000    4843.3339    345.32845    2358.3373    349.98189   -624.28184   -274.29994   -107.71865   -95.286355    4953.0322   -1547.4467    119.56683    178.70705      624.891            0    923.16488   -6405.1926   -45.460554      16.9073      16.9207      16.9298            0            0            0   -574.24298    -26.18124    2124.1988      915.904    733.43001    5425.6779 
 9972000    4843.3339    382.35977    -134.5229    387.51223   -634.05456   -246.54233   -256.04436   -82.537671    4928.3777   -1566.9344    130.31702    175.61208    626.95071            0    932.87981   -6412.7744   -45.460554      16.9073      16.9207      16.9298            0            0            0   -2212.3039    3379.6919    1517.1017    3977.7594   -7062.2142    2680.8862 
 9973000    4843.3339    375.24787    1978.2958     380.3045   -631.35533   -251.05084    -111.3138   -73.365878    4913.8643   -1572.3922    121.56914    194.66227    624.80546            0    941.03687   -6412.8906   -45.460554      16.9073      16.9207      16.9298            0            0            0   -2539.7575   -1199.6446    2869.6453    2125.6533    10.747163    3798.4869 
 9974000    4843.3339    363.87666   -1599.6343    368.78005   -612.33155   -243.55151   -356.54177   -81.102831    4945.9652   -1540.3373    127.58152    179.25405    621.17018            0    928.00575   -6405.1997   -45.460554      16.9073      16.9207      16.9298            0            0            0   -2546.8674   -2508.0481    911.68524    4443.0861   -7960.1257   -1281.8634 
 9975000    4843.3339    384.76082    1653.1063    389.94563   -638.39236   -248.44673   -131.67947   -100.66344    4941.8882   -1567.2851    116.22866    193.38711    619.27696            0    928.89272   -6408.5098   -45.460554      16.9073      16.9207      16.9298            0            0            0   -626.28301   -736.66365    4112.5325    3729.9884    1805.9579   -576.62742 
 9976000    4843.3339    357.54648   -2839.0835    362.36457   -626.25372   -263.88915   -464.42798   -104.91747    4959.6736   -1554.0006    120.53375     183.1612    624.05193            0    927.74688   -6408.7568   -45.460554      16.9073      16.9207      16.9298            0            0            0   -111.54023   -2970.6135   -3107.6692    1865.1993   -1558.1486   -8824.3012 
 9977000    4843.3339    370.46162    3822.9193    375.45374   -631.81393   -256.36019    13.671931   -60.513648    4927.8878   -1544.9819    113.59582    178.17392    621.39825            0      913.168   -6412.3561   -45.460554      16.9073      16.9207      16.9298            0            0            0    690.18231   -2200.7375   -3875.4068    3096.4722    3919.4413    4452.8444 
 9978000    4843.3339    381.37071   -1644.6237    386.50984   -624.06914    -237.5593   -353.72738   -66.859254    4932.3844   -1544.4369    125.78405    171.69479    622.88888            0    920.36773    -6409.962   -45.460554      16.9073      16.9207      16.9298            0            0            0   -1549.6136    1982.4729   -2824.8406    -5148.589    841.24916   -626.53112 
 9979000    4843.3339    405.23047   -1572.2498    410.69112   -628.32419   -217.63307   -328.68902   -71.386717    4914.4912    -1566.979    117.18764    191.24118    630.22603            0    938.65484   -6410.0835   -45.460554      16.9073      16.9207      16.9298            0            0            0   -1878.6054     -3272.48   -693.37907   -6142.3608   -2942.7864    4368.3977 
 9980000    4843.3339    366.07651     1674.399    371.00955   -624.50452   -253.49497    -135.2237   -36.753836    4859.2824    -1582.574    122.42866    203.15944    632.48139            0    958.06949   -6405.1025   -45.460554      16.9073      16.9207      16.9298            0            0            0    516.01824    963.79268    678.76864    1631.1454    2945.8163    446.23522 
 9981000    4843.3339    361.71579    4591.8251    366.59006   -602.19379   -235.60372    88.740102   -47.822541    4907.9409   -1542.0877    107.17077    198.11001    634.61312            0     939.8939    -6402.206   -45.460554      16.9073      16.9207      16.9298            0            0            0    2744.1863   -3420.3613   -2295.3684    4749.3383    5821.9451    3204.1918 
 9982000    4843.3339    371.97943    5443.1956    376.99201   -622.40312   -245.41112    139.06931   -82.457447    4947.5652   -1539.9492    116.15957    168.77957    632.60697            0    917.54611    -6405.057   -45.460554      16.9073      16.9207      16.9298            0            0            0   -2901.1965   -6876.9529    2366.6159    2276.3893    7466.8089    6586.3886 
 9983000    4843.3339    409.84222   -2497.8213    415.36501   -656.27818   -240.91317   -417.34692   -84.574404    4917.7555   -1575.3169    113.10616    179.23723    626.69532            0    919.03871    -6408.498   -45.460554      16.9073      16.9207      16.9298            0            0            0   -1132.7886   -1173.0472    2032.9652   -5325.6361   -1107.6596   -1060.1683 
 9984000    4843.3339    391.02665    1246.1286     396.2959   -594.91911   -198.62321   -110.60285   -64.270323    4921.0193   -1550.6058    135.60653    190.68025    629.39994            0    955.68672   -6407.3548   -45.460554      16.9073      16.9207      16.9298            0            0            0    1230.9412   -191.89989   -1903.1539     2347.798    3029.4619   -1638.8741 
 9985000    4843.3339    361.69439   -2463.7553    366.56837   -645.30878   -278.74041   -452.76791   -77.674857    4912.8039   -1573.3428    114.77902    197.70114    615.55385            0    928.03401   -6408.4718   -45.460554      16.9073      16.9207      16.9298            0            0            0    2148.3989    1063.0672    1428.8877    2666.5306   -8466.2261   -1591.5704 
 9986000    4843.3339    367.86911    2094.4534     372.8263   -616.59258   -243.76628   -95.824447   -46.427287     4906.331   -1548.5393    143.34672    165.10683    623.49319            0    931.94674    -6408.443   -45.460554      16.9073      16.9207      16.9298            0            0            0    4337.2185    1539.6868   -2079.9489     5402.055    109.60229    771.70279 
 9987000    4843.3339    392.17297   -3972.4977    397.45767   -625.47726   -228.01959    -508.6172   -103.59118    4951.3698   -1562.9071    127.56522     189.9484     619.9162            0    937.42982   -6410.6857   -45.460554      16.9073      16.9207      16.9298            0            0            0   -1495.4975    1664.2266     1030.095   -5827.5524   -2036.0142   -4053.9267 
 9988000    4843.3339    405.00891   -2492.4306    410.46657    -618.1926   -207.72603     -383.779   -69.079101    4912.4644   -1564.0952    130.00907    183.26503    632.62851            0    945.90261   -6407.4805   -45.460554      16.9073      16.9207      16.9298            0            0            0    1805.9477    514.94553   -1730.5038   -5954.6367     116.7615   -1639.4165 
 9989000    4843.3339    387.86875   -251.62124    393.09544   -647.57747   -254.48203   -272.25531   -51.741789    4884.7513   -1574.1425    109.58193    193.77957    623.20357            0    926.56506    -6407.152   -45.460554      16.9073      16.9207      16.9298            0            0            0    1514.6289     1420.956    4791.9858    1502.6244     36.57385    -2294.062 
 9990000    4843.3339    410.71386    2227.0025     416.2484   -622.77259   -206.52419   -49.219741   -67.949514    4921.4653   -1553.6332    120.05644    173.01182    637.79235            0    930.86061    -6407.149   -45.460554      16.9073      16.9207      16.9298            0            0            0   -6816.5498    1128.7162    771.90901    1508.2914    6045.3712   -872.65515 
 9991000    4843.3339    356.15228    1211.9489    360.95158   -636.88032   -275.92874   -190.32266   -82.811455    4928.7927   -1560.2309    120.94193    179.07725    623.33135            0    923.35053   -6406.2121   -45.460554      16.9073      16.9207      16.9298            0            0            0   -3853.7606    4861.1029   -2720.8396    1740.5025    3444.3342   -1548.9898 
 9992000    4843.3339    386.79561    3222.6236    392.00784   -632.78524   -240.77739   -13.147188    -70.75093     4930.467   -1548.8263    119.37728    177.77487    618.88891            0    916.04107   -6408.5424   -45.460554      16.9073      16.9207      16.9298            0            0            0   -738.13064   -607.61469    3037.5126    4561.7561    2245.8117    2860.3031 
 9993000    4843.3339    368.01953   -723.61021    372.97875   -625.84648   -252.86773   -303.97998   -67.112195     4902.651   -1573.4528    136.57257    188.90998    622.12374            0    947.60629   -6408.9916   -45.460554      16.9073      16.9207      16.9298            0            0            0    148.19228    208.18897    616.05255   -783.41195    52.678135   -1440.0968 
 9994000    4843.3339    341.07065    1728.4347    345.66672   -643.80558   -298.13886   -176.05078   -57.184927    4892.4826    -1572.134    122.98965    184.67403    620.66475            0    928.32843   -6407.4317   -45.460554      16.9073      16.9207      16.9298            0            0            0    2756.0856   -894.52035   -5435.6487   -2026.5129    2745.5924    4466.2246 
 9995000    4843.3339    352.10648    1310.2607    356.85126   -631.86403   -275.01276   -182.46242   -50.765968    4893.1405   -1563.6395    123.51494    183.27582    624.98468            0    931.77544    -6406.014   -45.460554      16.9073      16.9207      16.9298            0            0            0    1192.8153    4801.3028    3802.0225    2443.3056    633.26185     854.2146 
 9996000    4843.3339    375.90299    1671.3751    380.96844   -629.17546   -248.20702   -130.14935   -46.651854    4878.1578   -1573.3315    133.96951    184.91802    625.26846            0    944.15599   -6404.8374   -45.460554      16.9073      16.9207      16.9298            0            0            0    -2803.569   -246.41465    1144.9414    4615.5006    1127.5647    -728.9401 
 9997000    4843.3339    352.46516   -1173.8735    357.21478    -638.4703   -281.25553   -364.17215   -76.958833    4918.8035    -1563.012    122.19573     182.8391    619.50685            0    924.54167   -6404.8567   -45.460554      16.9073      16.9207      16.9298            0            0            0    2223.2524    1879.5661    1114.5559   -1002.8577   -6056.0442    3537.2814 
 9998000    4843.3339    362.97335   -2492.7881    367.86457   -644.08008   -276.21552   -452.29374   -63.005735    4894.9157   -1581.7079    130.60297    183.52778    623.49705            0     937.6278   -6413.6178   -45.460554      16.9073      16.9207      16.9298            0            0            0    307.48791   -1004.3997    1137.7426   -820.36982   -2912.3416   -3745.6528 
 9999000    4843.3339    338.43463    1305.3247    342.99518   -649.59174   -306.59656   -214.39488   -78.514688    4884.7057   -1604.2462    125.97785    205.34137    623.33528            0    954.65451   -6410.4373   -45.460554      16.9073      16.9207      16.9298            0            0            0    1053.7832    4350.2091    -1248.862    4840.3595    2099.5116   -3023.8971 
10000000    4843.3339    362.99149   -2899.4581    367.88295   -606.56882   -238.68587   -443.48926   -67.105287    4887.2597   -1591.0003    144.09568    217.73531    622.60047            0    984.43146   -6411.1547   -45.460554      16.9073      16.9207      16.9298            0            0            0     4760.818    2430.8319    6016.9008   -4809.3254    311.68102   -4200.7301 
Loop time of 5570.62 on 4 procs for 10000000 steps with 341 atoms

Performance: 155.099 ns/day, 0.155 hours/ns, 1795.131 timesteps/s
92.5% CPU use with 4 MPI tasks x 1 OpenMP threads

MPI task timing breakdown:
Section |  min time  |  avg time  |  max time  |%varavg| %total
---------------------------------------------------------------
Pair    | 1423.4     | 1581.8     | 1757.2     | 311.3 | 28.40
Bond    | 180.15     | 182.15     | 184.9      |  15.3 |  3.27
Kspace  | 2566.7     | 2742.4     | 2908.4     | 242.3 | 49.23
Neigh   | 191.26     | 191.47     | 191.6      |   0.9 |  3.44
Comm    | 730.21     | 739.54     | 743.94     |  20.2 | 13.28
Output  | 3.5533     | 3.6046     | 3.7543     |   4.6 |  0.06
Modify  | 45.112     | 48.028     | 51.084     |  38.7 |  0.86
Other   |            | 81.62      |            |       |  1.47

Nlocal:    85.25 ave 89 max 81 min
Histogram: 1 0 1 0 0 0 0 0 1 1
Nghost:    1635.5 ave 1657 max 1614 min
Histogram: 1 0 0 0 1 1 0 0 0 1
Neighs:    9113.75 ave 9995 max 7949 min
Histogram: 1 0 0 0 0 1 0 1 0 1

Total # of neighbors = 36455
Ave neighs/atom = 106.906
Ave special neighs/atom = 5.85924
Neighbor list builds = 406537
Dangerous builds = 0


write_restart   restart.${NAME}
write_restart   restart.mol
PPPM initialization ...
  using 12-bit tables for long-range coulomb (src/kspace.cpp:332)
  G vector (1/distance) = 0.371916
  grid = 12 12 12
  stencil order = 5
  estimated absolute RMS force accuracy = 0.0291692
  estimated relative force accuracy = 8.78421e-05
  using double precision KISS FFT
  3d grid and FFT values/proc = 3211 432
write_data	data.*
PPPM initialization ...
  using 12-bit tables for long-range coulomb (src/kspace.cpp:332)
  G vector (1/distance) = 0.371916
  grid = 12 12 12
  stencil order = 5
  estimated absolute RMS force accuracy = 0.0291692
  estimated relative force accuracy = 8.78421e-05
  using double precision KISS FFT
  3d grid and FFT values/proc = 3211 432
Total wall time: 1:32:51
