LAMMPS data file via write_data, version 3 Mar 2020, timestep = 10000000

294 atoms
8 atom types
226 bonds
5 bond types
275 angles
8 angle types
270 dihedrals
6 dihedral types

0.0000000000000000e+00 1.5436100000000000e+01 xlo xhi
0.0000000000000000e+00 1.5394000000000000e+01 ylo yhi
0.0000000000000000e+00 1.5438000000000001e+01 zlo zhi

Masses

1 6.941
2 16
3 19
4 12.01
5 32.06
6 14.01
7 16
8 1.008

Pair Coeffs # lj/cut/coul/long

1 0.0182661 2.126
2 0.209859 2.96
3 0.0609584 3.118
4 0.109326 3.4
5 0.249833 3.564
6 0.169886 3.25
7 0.155323 3.165
8 0 0

Bond Coeffs # harmonic

1 492.67 1.466
2 363.556 1.344
3 248.733 1.782
4 256.929 1.752
5 529.23 1.012

Angle Coeffs # harmonic

1 41.2526 108.48
2 45.27 121.88
3 43.0716 107.06
4 81.1647 109.67
5 71.2115 107.16
6 39.3938 103.12
7 109.646 119.18
8 37.9249 113.24

Dihedral Coeffs # charmm

1 0.143897 3 0 0
2 0.143897 3 0 0
3 0.499666 3 180 0
4 6.79545 1 180 0
5 0.499666 3 180 0
6 6.79545 1 180 0

Atoms # full

19 10 5 9.1100000000000003e-01 4.2930070368621491e+00 3.9979486440369003e+00 6.3059498058830981e+00 1 0 0
20 10 2 -4.6100000000000002e-01 3.8368714062596725e+00 4.1062573605827568e+00 4.9310563518181327e+00 1 0 0
23 10 4 3.1900000000000001e-01 5.9253377766696458e+00 4.8092089591695029e+00 6.4121670040514163e+00 1 0 0
3 3 1 8.0000000000000004e-01 3.2498044097381547e+00 4.6233913339503117e+00 3.0076694273094593e+00 0 1 1
17 10 2 -4.6100000000000002e-01 4.2815035216827804e+00 2.7548093709027239e+00 6.9597149670976286e+00 1 0 0
21 10 3 -1.3800000000000001e-01 6.7206435089388998e+00 4.1499079994587609e+00 5.5402790595389684e+00 1 0 0
16 10 6 -5.8799999999999997e-01 3.0025045141315601e+00 4.9216587527041114e+00 7.0726103212926255e+00 1 0 0
14 10 2 -4.6100000000000002e-01 1.4882597358659027e+00 2.8524448408533027e+00 7.1311713991487169e+00 1 0 0
52 12 3 -1.3800000000000001e-01 6.5549218127657332e+00 1.1799676865860835e+00 4.3042776219898569e+00 0 0 0
159 23 8 4.0999999999999998e-01 2.5560891749632191e+00 1.8347915585681964e+00 2.0178865109569100e+00 0 -1 -1
157 23 7 -8.1999999999999995e-01 2.3545490713324448e+00 2.7180566720971555e+00 2.5268376745254022e+00 0 -1 -1
158 23 8 4.0999999999999998e-01 1.5763825578497928e+00 2.6035861391995403e+00 3.1442381597463540e+00 0 -1 -1
148 20 7 -8.1999999999999995e-01 1.7516342958586506e-02 2.1467358463515174e+00 4.5775372386334201e+00 -6 -2 -2
150 20 8 4.0999999999999998e-01 6.0280922032763729e-01 2.3298839429207665e+00 5.4064578479815690e+00 -6 -2 -2
13 10 5 9.1100000000000003e-01 1.6220383501488203e+00 4.2012322717482125e+00 7.7080866591980914e+00 1 0 0
149 20 8 4.0999999999999998e-01 2.9807633463542538e-01 1.1441049508511532e+00 4.3549672380600208e+00 -6 -2 -2
10 10 2 -4.6100000000000002e-01 4.6090292911441250e-01 5.0261377431695626e+00 7.4188913940563239e+00 1 0 0
51 12 3 -1.3800000000000001e-01 5.4709276164225820e+00 9.7402877804634680e-01 2.4679237605173192e+00 0 0 0
54 12 3 -1.3800000000000001e-01 4.4286571661220142e+00 1.0608716164220993e+00 4.3780275137080036e+00 0 0 0
53 12 4 3.1900000000000001e-01 5.4847120640357723e+00 5.5874512865999815e-01 3.7482850934984122e+00 0 0 0
257 56 8 4.0999999999999998e-01 5.7229863401815573e+00 4.9981621691973093e+00 1.8686328288424523e+00 0 2 -1
110 16 2 -4.6100000000000002e-01 5.4337551531431405e+00 3.8131153023957727e+00 2.6738344278437404e-01 0 0 0
22 10 3 -1.3800000000000001e-01 6.4710961247211456e+00 4.7850462415942348e+00 7.6480671031456327e+00 1 0 0
114 16 3 -1.3800000000000001e-01 2.9946740907978806e+00 1.8408529740776578e+00 1.8251359606128843e-02 0 0 0
256 56 7 -8.1999999999999995e-01 5.3425957870257701e+00 5.2941452864996883e+00 2.7416837535133660e+00 0 2 -1
258 56 8 4.0999999999999998e-01 5.5831975155985267e+00 6.2760488484587924e+00 3.0118451333663674e+00 0 2 -1
293 68 8 4.0999999999999998e-01 7.1261755007969008e+00 8.6071326939204447e+00 5.9327707706141677e+00 -3 0 -2
292 68 7 -8.1999999999999995e-01 7.3357609389250085e+00 9.0867646547398611e+00 5.0698892695897610e+00 -3 0 -2
24 10 3 -1.3800000000000001e-01 5.8930983463856048e+00 6.1600417528792031e+00 6.0288390085551216e+00 1 0 0
290 67 8 4.0999999999999998e-01 2.1493417309537159e+00 7.0949986942892354e+00 5.4458304678883298e+00 2 -1 -2
176 29 8 4.0999999999999998e-01 2.7029944264079475e-01 8.2799371475151364e+00 1.9813261134766924e+00 -3 -3 1
173 28 8 4.0999999999999998e-01 6.9729196231519390e+00 8.0299031001944563e+00 2.3477585635599700e+00 -3 2 2
238 50 7 -8.1999999999999995e-01 2.0408252251808818e+00 6.2630309362151442e+00 3.0625218395319123e+00 0 2 1
239 50 8 4.0999999999999998e-01 2.1835309124385818e+00 7.0424671952976414e+00 2.3813112572990289e+00 0 2 1
172 28 7 -8.1999999999999995e-01 6.0308876128920508e+00 8.0904533163248562e+00 2.7938763076605078e+00 -3 2 2
174 28 8 4.0999999999999998e-01 5.6527023264916538e+00 9.0148323120507321e+00 2.7748817968824335e+00 -3 2 2
291 67 8 4.0999999999999998e-01 1.3877487467344338e+00 8.4259727942470857e+00 6.0290428014666277e+00 2 -1 -2
289 67 7 -8.1999999999999995e-01 1.2812104163355076e+00 7.4663054903992467e+00 5.7595908499322661e+00 2 -1 -2
240 50 8 4.0999999999999998e-01 1.2364721989389600e+00 6.6815570576142482e+00 3.5910162141075173e+00 0 2 1
177 29 8 4.0999999999999998e-01 2.6710035826701128e-01 9.0844888692636960e+00 3.4302171792132796e+00 -3 -3 1
223 45 7 -8.1999999999999995e-01 1.4282791561148827e+00 7.9976103075169336e+00 6.3834210191205676e-01 -1 -2 -2
202 38 7 -8.1999999999999995e-01 1.5067951540172255e+00 1.0111767842452849e+01 6.3172717454432172e+00 0 1 -2
294 68 8 4.0999999999999998e-01 7.1823576230725568e+00 8.3896848374634843e+00 4.3196332884313140e+00 -3 0 -2
225 45 8 4.0999999999999998e-01 9.2101128706651381e-01 7.3315375932842306e+00 6.8820822804814927e-02 -1 -2 -2
99 15 3 -1.3800000000000001e-01 3.9928176766964030e+00 8.0075916336621198e+00 7.5931192630587923e+00 -1 0 0
224 45 8 4.0999999999999998e-01 1.8896866319029861e+00 8.6464901164547943e+00 5.2911201230555704e-02 -1 -2 -2
145 19 7 -8.1999999999999995e-01 3.4160819234089013e-01 1.1494108055483991e+01 4.2701296096307031e+00 -1 -1 -4
197 36 8 4.0999999999999998e-01 1.5250767388267432e+00 1.2763164998068113e+01 5.1395956890763665e+00 -2 -1 -1
204 38 8 4.0999999999999998e-01 1.1640786131764962e+00 1.0345283057972775e+01 7.2864407493141528e+00 0 1 -2
205 39 7 -8.1999999999999995e-01 1.0909012461099600e-02 1.1479427507533563e+01 1.7283774659541888e+00 1 -2 -2
203 38 8 4.0999999999999998e-01 8.5198211587040795e-01 1.0649176398694381e+01 5.6500937150566646e+00 0 1 -2
41 12 3 -1.3800000000000001e-01 3.2939025422250561e+00 1.0681039678241680e+01 1.9189062703069781e+00 0 -1 0
254 55 8 4.0999999999999998e-01 3.0413392094588452e+00 1.0773490835447266e+01 5.8669002685548328e+00 -3 -1 -5
198 36 8 4.0999999999999998e-01 1.5275442745225993e+00 1.4308330300961293e+01 4.8336703756885813e+00 -2 -1 -1
279 63 8 4.0999999999999998e-01 1.9431537312788350e-01 1.5152042411849473e+01 2.6468049360121535e+00 0 0 0
209 40 8 4.0999999999999998e-01 7.4245412896835248e+00 1.0584774938395290e+01 4.6026613737195854e+00 -3 1 -2
45 12 3 -1.3800000000000001e-01 5.3490889372034571e+00 1.1165390534607111e+01 1.7393034613957215e+00 0 -1 0
40 12 2 -4.6100000000000002e-01 2.2715460163112993e+00 1.3366315420564280e+01 1.6989484544596922e+00 0 -1 0
49 12 5 9.1100000000000003e-01 5.4604485637588542e+00 1.4102797929171162e+01 3.8046155776933741e+00 0 -1 0
277 63 7 -8.1999999999999995e-01 9.4614010204575727e-01 1.5292789674973672e+01 3.3442323983877515e+00 0 0 0
146 19 8 4.0999999999999998e-01 4.0647021559786428e-01 1.1585193379933864e+01 3.2077943560620894e+00 -1 -1 -4
255 55 8 4.0999999999999998e-01 3.6725298940078774e+00 1.2239556203866126e+01 5.3179876041896144e+00 -3 -1 -5
7 7 1 8.0000000000000004e-01 5.7963180215403982e+00 1.1729288095663993e+01 6.2811173961947881e+00 -2 0 0
46 12 6 -5.8799999999999997e-01 3.9851165347649626e+00 1.3479984934639736e+01 3.2860023305004589e+00 0 -1 0
278 63 8 4.0999999999999998e-01 1.8022612337835562e+00 1.4961456664025171e+01 2.9371476278132520e+00 0 0 0
50 12 2 -4.6100000000000002e-01 6.6312959278531638e+00 1.3503493289048111e+01 3.0366340891984027e+00 0 -1 0
43 12 5 9.1100000000000003e-01 3.7345345088898148e+00 1.3233612038502921e+01 1.5831076883307531e+00 0 -1 0
44 12 2 -4.6100000000000002e-01 4.6536275603399151e+00 1.4156878166831538e+01 9.5283089309453595e-01 0 -1 0
208 40 7 -8.1999999999999995e-01 7.4307476750021930e+00 1.1613928626845091e+01 4.8349869338511828e+00 -3 1 -2
42 12 4 3.1900000000000001e-01 4.1474503311142596e+00 1.1458419209152611e+01 1.3484716635074170e+00 0 -1 0
47 12 2 -4.6100000000000002e-01 5.3276958222327337e+00 1.3569412490665147e+01 5.1460822043191756e+00 0 -1 0
253 55 7 -8.1999999999999995e-01 3.8563300043967215e+00 1.1322301895483859e+01 5.5524556267178546e+00 -3 -1 -5
245 52 8 4.0999999999999998e-01 3.1028548759270813e-01 1.3588218622206060e+01 6.7757044186870843e+00 -1 1 0
196 36 7 -8.1999999999999995e-01 1.5678486979912623e+00 1.3643713089868044e+01 5.6120499884964117e+00 -2 -1 -1
210 40 8 4.0999999999999998e-01 7.1101872038745260e+00 1.2123529175530908e+01 4.0276275775880022e+00 -3 1 -2
48 12 3 -1.3800000000000001e-01 4.1865517276717021e+00 1.1162801139540202e+01 6.1200218009589351e-02 0 -1 0
113 16 4 3.1900000000000001e-01 3.2149277769246960e+00 2.8228196696335952e+00 1.4535318174247410e+01 0 0 -1
109 16 5 9.1100000000000003e-01 4.9934290990509478e+00 3.1953867244630576e+00 1.4451710187772369e+01 0 0 -1
107 16 2 -4.6100000000000002e-01 5.7470060333554178e+00 2.0595751218763594e+00 1.3861620338283705e+01 0 0 -1
111 16 3 -1.3800000000000001e-01 2.8352799837180407e+00 2.3289844584599324e+00 1.3315484957574430e+01 0 0 -1
12 10 4 3.1900000000000001e-01 1.9234944820888391e+00 3.9984310099562932e+00 9.4921678616157852e+00 1 0 0
11 10 3 -1.3800000000000001e-01 3.0209006483826553e+00 3.2453980670822342e+00 9.6925441995532040e+00 1 0 0
106 16 6 -5.8799999999999997e-01 5.2144622580959981e+00 4.4318126914587372e+00 1.3167882984771294e+01 0 0 -1
241 51 7 -8.1999999999999995e-01 5.5972114909909436e+00 3.3338902852910355e+00 1.0511209794293970e+01 -1 1 -1
15 10 3 -1.3800000000000001e-01 8.6752252864697488e-01 3.4890956303857004e+00 1.0158963261846441e+01 1 0 0
272 61 8 4.0999999999999998e-01 2.3832801341699555e-01 2.9918806439375906e-01 9.9299677304165108e+00 3 0 -1
243 51 8 4.0999999999999998e-01 5.1718961174271811e+00 3.6653398047771821e+00 1.1374621400966110e+01 -1 1 -1
211 41 7 -8.1999999999999995e-01 4.7126516706189960e+00 9.3647797994023585e-01 1.0654497543668095e+01 0 0 -1
213 41 8 4.0999999999999998e-01 4.2310291887448734e+00 2.6694165958772825e-01 9.9950829109384500e+00 0 0 -1
273 61 8 4.0999999999999998e-01 1.3232986371025703e+00 6.4442169751416978e-01 8.6207604578942210e+00 3 0 -1
212 41 8 4.0999999999999998e-01 4.8684856738003761e+00 1.8406308183496964e+00 1.0189398498009956e+01 0 0 -1
228 46 8 4.0999999999999998e-01 3.3862190051003034e+00 1.4568935403190924e+00 7.9816653805805533e+00 -1 -2 -2
250 54 7 -8.1999999999999995e-01 7.5584637326629140e+00 2.4765998808294515e-01 1.1667220637269498e+01 1 3 1
242 51 8 4.0999999999999998e-01 6.2235062439797542e+00 4.0375933078634363e+00 1.0108821578579432e+01 -1 1 -1
112 16 3 -1.3800000000000001e-01 2.4122172124423087e+00 3.8134890282214693e+00 1.4824365464896145e+01 0 0 -1
100 16 2 -4.6100000000000002e-01 7.5907866838620315e+00 4.6018988308301756e+00 1.3938761578543680e+01 0 0 -1
4 4 1 8.0000000000000004e-01 5.6340776974245053e+00 5.0031949164710299e-01 1.2298568222040608e+01 -2 1 2
271 61 7 -8.1999999999999995e-01 3.9232182581970504e-01 6.8048243942963194e-01 8.9815495370487337e+00 3 0 -1
226 46 7 -8.1999999999999995e-01 2.8941416392153569e+00 5.8525834728592574e-01 8.2801426571580805e+00 -1 -2 -2
251 54 8 4.0999999999999998e-01 7.4464468842562770e+00 1.0460851230879396e+00 1.1003015150148935e+01 1 3 1
18 10 3 -1.3800000000000001e-01 2.1565558203422630e+00 5.2034755473017080e+00 9.9668175776284649e+00 1 0 0
281 64 8 4.0999999999999998e-01 2.0310370981812338e+00 1.0028518355442513e+01 1.3129240479164364e+01 -2 1 -2
103 16 5 9.1100000000000003e-01 6.5720700940719086e+00 5.4482091616560977e+00 1.3255344535395631e+01 0 0 -1
108 16 3 -1.3800000000000001e-01 5.0620023448277021e+00 7.7315831888868418e+00 1.3490197655340246e+01 0 0 -1
102 16 4 3.1900000000000001e-01 6.0851230023764744e+00 7.0177100454698502e+00 1.4044262196820789e+01 0 0 -1
98 15 4 3.1900000000000001e-01 4.6440819232608881e+00 7.8159777404080399e+00 8.7330021453399915e+00 -1 0 0
97 15 3 -1.3800000000000001e-01 4.8223966532814853e+00 6.4616671849253065e+00 9.0318510996187431e+00 -1 0 0
92 15 2 -4.6100000000000002e-01 7.2006349722201239e+00 8.1690813876721418e+00 7.8826278172532511e+00 -1 0 0
280 64 7 -8.1999999999999995e-01 1.7588042730102447e+00 9.2101055380237735e+00 1.3682486212314215e+01 -2 1 -2
94 15 5 9.1100000000000003e-01 6.1356253896304702e+00 8.7629231684413966e+00 8.7299731960317910e+00 -1 0 0
96 15 3 -1.3800000000000001e-01 3.8579208886322065e+00 8.1215413621170871e+00 9.7124124411145925e+00 -1 0 0
95 15 2 -4.6100000000000002e-01 6.4774236380075809e+00 9.0558795119543252e+00 1.0116781308921254e+01 -1 0 0
101 16 3 -1.3800000000000001e-01 7.1420867572003992e+00 7.9054506158991824e+00 1.3943546259392122e+01 0 0 -1
104 16 2 -4.6100000000000002e-01 6.8471169624554440e+00 5.7048639938446479e+00 1.1821631882024057e+01 0 0 -1
105 16 3 -1.3800000000000001e-01 5.9074205401984186e+00 6.8475001889778033e+00 1.5328247278933508e+01 0 0 -1
282 64 8 4.0999999999999998e-01 7.5148983274974013e-01 9.0862697068039306e+00 1.3410430092730115e+01 -2 1 -2
230 47 8 4.0999999999999998e-01 5.0520993148829385e-01 1.0865113407702225e+01 9.5319454414648632e+00 0 -2 2
35 11 2 -4.6100000000000002e-01 2.2457945166618818e+00 1.2192912160972037e+01 1.3023743954598194e+01 0 -2 0
247 53 7 -8.1999999999999995e-01 6.6830818120028788e+00 1.4702432542375679e+01 1.4392972774078023e+01 2 -4 -3
229 47 7 -8.1999999999999995e-01 2.8916229705842644e-01 1.1069321787087175e+01 8.5430863365899512e+00 0 -2 2
39 11 3 -1.3800000000000001e-01 4.4691343437706860e-01 1.2734499642757795e+01 1.0747442196548040e+01 0 -2 0
91 15 6 -5.8799999999999997e-01 5.9038202860153239e+00 1.0277337339907010e+01 7.9863916970611379e+00 -1 0 0
85 15 2 -4.6100000000000002e-01 7.2319459572909706e+00 1.1734920938734177e+01 9.5455511566993465e+00 -1 0 0
249 53 8 4.0999999999999998e-01 7.2821497643231563e+00 1.4072446331376282e+01 1.5025073821576401e+01 2 -4 -3
93 15 3 -1.3800000000000001e-01 4.9845596100987475e+00 1.0817898770512636e+01 1.1518682386104835e+01 -1 0 0
182 31 8 4.0999999999999998e-01 3.9336884527272380e+00 1.3955882839032167e+01 1.3505550921712437e+01 0 -1 -2
183 31 8 4.0999999999999998e-01 3.0233912705823776e+00 1.5188108248696372e+01 1.2973511675694064e+01 0 -1 -2
90 15 3 -1.3800000000000001e-01 5.0378918315938259e+00 1.2960247354248025e+01 1.1275288635763218e+01 -1 0 0
36 11 3 -1.3800000000000001e-01 1.6438857204301194e+00 1.4490038270168283e+01 1.1200404171300896e+01 0 -2 0
38 11 4 3.1900000000000001e-01 6.7906675593952481e-01 1.3673675526736615e+01 1.1639397711329543e+01 0 -2 0
32 11 2 -4.6100000000000002e-01 1.3647829693970990e+00 1.4229872399250411e+01 1.4150639913142317e+01 0 -2 0
34 11 5 9.1100000000000003e-01 1.1477019910132373e+00 1.3086840281132043e+01 1.3296750095474851e+01 0 -2 0
231 47 8 4.0999999999999998e-01 2.8278637451041089e-01 1.2100770609876829e+01 8.4860918690060014e+00 0 -2 2
88 15 5 9.1100000000000003e-01 5.8480538647534601e+00 1.1699952985884218e+01 9.0346407929259698e+00 -1 0 0
87 15 4 3.1900000000000001e-01 4.8846095795585667e+00 1.1808520372040686e+01 1.0566494494347056e+01 -1 0 0
89 15 2 -4.6100000000000002e-01 5.2799988493712817e+00 1.2720431118348564e+01 8.1262894104146373e+00 -1 0 0
181 31 7 -8.1999999999999995e-01 3.9764449256765979e+00 1.4880996887040858e+01 1.3134152605937253e+01 0 -1 -2
86 15 3 -1.3800000000000001e-01 3.5177953079859288e+00 1.1762537868640457e+01 1.0270778427076721e+01 -1 0 0
248 53 8 4.0999999999999998e-01 5.8009991204248932e+00 1.4800438558200026e+01 1.4894769082645618e+01 2 -4 -3
227 46 8 4.0999999999999998e-01 3.2971299984210316e+00 1.5208137217400564e+01 7.8140279678710582e+00 -1 -3 -2
76 14 6 -5.8799999999999997e-01 1.2755165190421719e+01 2.4982771321114797e-01 2.3628938182110324e+00 1 -1 0
187 33 7 -8.1999999999999995e-01 1.2579179986538540e+01 3.4431499911299457e+00 5.3987271167549968e+00 0 2 0
73 14 5 9.1100000000000003e-01 1.1256399934267813e+01 1.1485631406886982e+00 2.3060956946428983e+00 1 -1 0
2 2 1 8.0000000000000004e-01 1.2454905371556274e+01 2.4824386616845273e+00 7.2108162924938544e+00 -1 0 -3
70 14 2 -4.6100000000000002e-01 1.1505488170707919e+01 2.2432953299964709e+00 3.2235375399240058e+00 1 -1 0
71 14 3 -1.3800000000000001e-01 8.8219719795510603e+00 2.8881931644479747e-01 2.4465801083137118e+00 1 -1 0
74 14 2 -4.6100000000000002e-01 1.0984143320589627e+01 1.5381912663518977e+00 9.5023395516355214e-01 1 -1 0
140 18 2 -4.6100000000000002e-01 1.0144640254656890e+01 2.2391678243549364e+00 6.9957549030031254e+00 -1 1 -1
188 33 8 4.0999999999999998e-01 1.1987029096212398e+01 3.2211503797427197e+00 4.6682133597098447e+00 0 2 0
189 33 8 4.0999999999999998e-01 1.3458982046654226e+01 3.7776362549538312e+00 4.9031016701306269e+00 0 2 0
83 14 4 3.1900000000000001e-01 1.4360009347229028e+01 1.2853458964767446e+00 4.1533237592511280e-01 1 -1 0
216 42 8 4.0999999999999998e-01 1.2400228893838548e+01 5.0397128525532127e+00 6.5513871397740395e+00 1 -1 -1
82 14 3 -1.3800000000000001e-01 1.4954093988111509e+01 1.9062523371442814e+00 1.4593492102824266e+00 1 -1 0
153 21 8 4.0999999999999998e-01 1.3368044851961059e+01 4.8240988890165584e+00 1.2864157172131485e+00 -3 -1 1
167 26 8 4.0999999999999998e-01 1.4990988423423062e+01 5.0540377470292661e+00 3.5160010126869872e+00 1 -1 -1
63 13 3 -1.3800000000000001e-01 1.0210362115059798e+01 4.2238937230977296e+00 1.3204535047830774e+00 -1 0 0
57 13 4 3.1900000000000001e-01 9.2912540488835802e+00 4.8258396055080155e+00 2.1381929057080775e+00 -1 0 0
60 13 3 -1.3800000000000001e-01 8.7208754902396404e+00 3.8069505697609456e+00 2.8707688029206158e+00 -1 0 0
221 44 8 4.0999999999999998e-01 9.5617587439978742e+00 4.3197239021014333e+00 6.5502680908746669e+00 -1 2 -1
166 26 7 -8.1999999999999995e-01 1.5245485141632862e+01 4.8305345784808873e+00 4.4648381737727485e+00 1 -1 -1
286 66 7 -8.1999999999999995e-01 1.2894219905166407e+01 4.5845615482561308e-01 6.7738684648559735e+00 3 2 0
168 26 8 4.0999999999999998e-01 1.5390079169214479e+01 3.8228690378062318e+00 4.4290192775687638e+00 1 -1 -1
151 21 7 -8.1999999999999995e-01 1.4076825350271685e+01 5.4423502028444011e+00 1.8315384572692992e+00 -3 -1 1
152 21 8 4.0999999999999998e-01 1.4691227980289826e+01 5.8149341411664786e+00 1.0927523315182470e+00 -3 -1 1
178 30 7 -8.1999999999999995e-01 1.0632640889592064e+01 8.5133665226363373e+00 6.7873176578017818e+00 -2 -2 3
180 30 8 4.0999999999999998e-01 1.0241549908903522e+01 9.4167395342236357e+00 7.0797325111293805e+00 -2 -2 3
215 42 8 4.0999999999999998e-01 1.2589906538612082e+01 6.1597637467652104e+00 7.6743440521230397e+00 1 -1 -1
179 30 8 4.0999999999999998e-01 1.1201862159364893e+01 8.6736841502408737e+00 5.9319361042323768e+00 -2 -2 3
1 1 1 8.0000000000000004e-01 1.4963119435132752e+01 6.2702409065592182e+00 6.0583010184286969e+00 0 -1 -2
56 13 3 -1.3800000000000001e-01 8.3569582961761224e+00 5.3097481500015746e+00 1.3492050525627151e+00 -1 0 0
220 44 7 -8.1999999999999995e-01 1.0015252296676582e+01 5.2149182784500852e+00 6.5974902324775719e+00 -1 2 -1
222 44 8 4.0999999999999998e-01 1.0438329711708874e+01 5.3446611876781285e+00 5.6971432870270986e+00 -1 2 -1
66 13 3 -1.3800000000000001e-01 1.1958250821816346e+01 1.0203989534432596e+01 2.0797838010751621e+00 -1 0 0
164 25 8 4.0999999999999998e-01 1.3618775528628477e+01 8.5484758727468186e+00 5.4594975800804066e+00 1 1 0
214 42 7 -8.1999999999999995e-01 1.2860886550319240e+01 5.9125909426466476e+00 6.7543175402397866e+00 1 -1 -1
165 25 8 4.0999999999999998e-01 1.2740552499602691e+01 7.2249929712956051e+00 5.6399402125825411e+00 1 1 0
55 13 2 -4.6100000000000002e-01 1.1066330606756397e+01 5.6978272830002332e+00 4.0001010745946717e+00 -1 0 0
58 13 5 9.1100000000000003e-01 9.9772441587052487e+00 6.1080944643755579e+00 3.1431109427691983e+00 -1 0 0
59 13 2 -4.6100000000000002e-01 8.9002656721271940e+00 6.9433654698628686e+00 3.7170230570392384e+00 -1 0 0
163 25 7 -8.1999999999999995e-01 1.3115435444160934e+01 7.8714251393906629e+00 4.8559459886121425e+00 1 1 0
5 5 1 8.0000000000000004e-01 1.3437407359557799e+01 7.3066716068970399e+00 2.7237947751674749e+00 -1 0 1
61 13 6 -5.8799999999999997e-01 1.0844617512790368e+01 7.1858807812999705e+00 2.0755246975323822e+00 -1 0 0
199 37 7 -8.1999999999999995e-01 1.3200351073314664e+01 8.0132982908640109e+00 8.0127591179891144e-01 -4 -2 -3
65 13 2 -4.6100000000000002e-01 8.5557945168561709e+00 8.4643158623237600e+00 1.4912009444029053e+00 -1 0 0
232 48 7 -8.1999999999999995e-01 1.3950817765247754e+01 1.0092627067257464e+01 6.2974010094086053e+00 -2 3 3
64 13 5 9.1100000000000003e-01 1.0021836335735975e+01 8.5654269177568789e+00 1.4926117745271110e+00 -1 0 0
8 8 1 8.0000000000000004e-01 9.3152450412703729e+00 6.8425736439522398e+00 7.4998114110522360e+00 -2 -2 -2
68 13 4 3.1900000000000001e-01 1.0628215700061105e+01 1.0046355229260007e+01 2.3357155662278570e+00 -1 0 0
200 37 8 4.0999999999999998e-01 1.2147599339439113e+01 7.8620781232796144e+00 7.1415804396194837e-01 -4 -2 -3
67 13 3 -1.3800000000000001e-01 1.0449952073636373e+01 9.9947533322552484e+00 3.6965764703195125e+00 -1 0 0
234 48 8 4.0999999999999998e-01 1.4686053255471149e+01 1.0212887492609260e+01 7.0220046149371962e+00 -2 3 3
201 37 8 4.0999999999999998e-01 1.3507760315527392e+01 8.7699044943024589e+00 1.9088671848915517e-01 -4 -2 -3
62 13 2 -4.6100000000000002e-01 1.0583723596048415e+01 8.6733361192335945e+00 1.1548708638836402e-01 -1 0 0
175 29 7 -8.1999999999999995e-01 1.5340693239465441e+01 8.2227149397302064e+00 2.9175631155413537e+00 -4 -3 1
79 14 5 9.1100000000000003e-01 1.3564230549341111e+01 1.5242545264295201e+01 9.1899253473534381e-01 1 -2 0
72 14 4 3.1900000000000001e-01 1.0068997329790603e+01 1.5306581259944471e+01 2.9228942737894008e+00 1 -2 0
75 14 3 -1.3800000000000001e-01 1.0069259964111907e+01 1.5310651279568795e+01 4.2184860294068836e+00 1 -2 0
78 14 3 -1.3800000000000001e-01 1.0435331861711076e+01 1.4130795097907468e+01 2.4778428512154589e+00 1 -2 0
262 58 7 -8.1999999999999995e-01 9.3559342191901465e+00 1.0957089949136138e+01 6.9000840394768463e+00 1 -1 -1
263 58 8 4.0999999999999998e-01 9.5125824563201355e+00 1.1701490769303810e+01 7.6422395957624456e+00 1 -1 -1
287 66 8 4.0999999999999998e-01 1.2781355620304435e+01 1.5356428126682614e+01 7.6628309968503281e+00 3 1 0
265 59 7 -8.1999999999999995e-01 7.8066035575666000e+00 1.2799532987359196e+01 2.8205776559137957e-01 -6 2 2
244 52 7 -8.1999999999999995e-01 1.4965666618888067e+01 1.3776290953869029e+01 7.4126004016336600e+00 -2 1 0
69 13 3 -1.3800000000000001e-01 1.0052100065184939e+01 1.1154791692817664e+01 1.8937567665575208e+00 -1 0 0
288 66 8 4.0999999999999998e-01 1.2989558189333804e+01 1.5271357019367052e+01 5.9706188494751462e+00 3 1 0
141 18 3 -1.3800000000000001e-01 1.0044971186500057e+01 1.4449044448423258e+01 7.2991652488602856e+00 -1 0 -1
77 14 2 -4.6100000000000002e-01 1.4422873701864043e+01 1.4287464208504588e+01 1.5169556517609861e+00 1 -2 0
284 65 8 4.0999999999999998e-01 1.3617843414404792e+01 1.2732978722224143e+01 7.1256466380365699e+00 -1 -1 -2
264 58 8 4.0999999999999998e-01 8.7675980717709976e+00 1.1041960408184542e+01 6.0583239895076684e+00 1 -1 -1
233 48 8 4.0999999999999998e-01 1.3324168207350931e+01 1.0866899433832099e+01 6.5266084881214281e+00 -2 3 3
285 65 8 4.0999999999999998e-01 1.2149697209387044e+01 1.2961851208642130e+01 6.3546140296860463e+00 -1 -1 -2
269 60 8 4.0999999999999998e-01 1.4677106136944129e+01 1.4094456122935151e+01 4.2300942024085160e+00 0 0 0
268 60 7 -8.1999999999999995e-01 1.3732294938309566e+01 1.4205019045645964e+01 4.5578389512091055e+00 0 0 0
270 60 8 4.0999999999999998e-01 1.3314350056022844e+01 1.4705977088973487e+01 3.8102972642708446e+00 0 0 0
283 65 7 -8.1999999999999995e-01 1.2575652740501605e+01 1.2508896346465656e+01 7.1897654089174301e+00 -1 -1 -2
147 19 8 4.0999999999999998e-01 1.4810820165840219e+01 1.1363006686552268e+01 4.4016791576244758e+00 -2 -1 -4
142 18 3 -1.3800000000000001e-01 8.3322410040799824e+00 1.5309756738860827e+01 6.4206548469302378e+00 -1 0 -1
143 18 4 3.1900000000000001e-01 9.0305215620519128e+00 1.5274821012869577e+01 7.5214164307819873e+00 -1 0 -1
80 14 2 -4.6100000000000002e-01 1.2467670386686727e+01 1.4761753600380267e+01 2.7480538509538355e-02 1 -2 0
266 59 8 4.0999999999999998e-01 7.7936446413709692e+00 1.3007570054648406e+01 1.2871487844856826e+00 -6 2 2
206 39 8 4.0999999999999998e-01 1.5402338191948116e+01 1.2488696923221372e+01 1.6395244563901052e+00 0 -2 -2
207 39 8 4.0999999999999998e-01 1.5359004515953448e+01 1.1223858744493787e+01 7.4648703679333273e-01 0 -2 -2
267 59 8 4.0999999999999998e-01 8.2772286164268749e+00 1.1890410728239505e+01 5.8535234996226038e-02 -6 2 2
246 52 8 4.0999999999999998e-01 1.4900793697831842e+01 1.4780871528054119e+01 7.5871993896065177e+00 -2 1 0
154 22 7 -8.1999999999999995e-01 9.2926847371367298e+00 2.1428077001626806e+00 1.4463207685070588e+01 -1 0 -1
156 22 8 4.0999999999999998e-01 8.8750529155866058e+00 3.0937385396658179e+00 1.4429467993167743e+01 -1 0 -1
155 22 8 4.0999999999999998e-01 9.9602733651656781e+00 2.0421126436208614e+00 1.5182358560055986e+01 -1 0 -1
133 18 5 9.1100000000000003e-01 1.1202402919170337e+01 1.2180920528509452e-01 1.0271815651950536e+01 -1 1 -1
138 18 3 -1.3800000000000001e-01 1.1111404897524453e+01 1.6162183355618516e+00 1.2416912360042671e+01 -1 1 -1
136 18 6 -5.8799999999999997e-01 1.0755481169444925e+01 1.5127494669978581e+00 9.3723227183901283e+00 -1 1 -1
84 14 3 -1.3800000000000001e-01 1.3480130669414455e+01 2.1233655557317852e+00 1.5289431201158491e+01 1 -1 -1
194 35 8 4.0999999999999998e-01 1.1001404006020012e+01 3.4307655288175529e+00 9.3909718341858088e+00 2 -2 1
132 18 4 3.1900000000000001e-01 1.1946851294518071e+01 7.0544222938119872e-01 1.1850360108311504e+01 -1 1 -1
276 62 8 4.0999999999999998e-01 1.4675904284276166e+01 1.9481789571499564e+00 8.4285611571387236e+00 -5 -2 -3
131 18 3 -1.3800000000000001e-01 1.3120628874758996e+01 1.3884244552182810e+00 1.1577008947361881e+01 -1 1 -1
81 14 3 -1.3800000000000001e-01 1.5266958690207030e+01 1.0662385181493643e+00 1.4836677726771917e+01 1 -1 -1
137 18 2 -4.6100000000000002e-01 8.5799877080597149e+00 2.0711568695672002e+00 8.9579367891059825e+00 -1 1 -1
193 35 7 -8.1999999999999995e-01 1.1227127530311172e+01 4.4484119621893115e+00 9.3274205900336788e+00 2 -2 1
139 18 5 9.1100000000000003e-01 9.5572204527271687e+00 1.4467702538676368e+00 8.0906152888627112e+00 -1 1 -1
275 62 8 4.0999999999999998e-01 1.4280492568742787e+01 3.4369377698346040e+00 9.1691483384976760e+00 -5 -2 -3
274 62 7 -8.1999999999999995e-01 1.4023219714717323e+01 2.7069907291158057e+00 8.4542156915056097e+00 -5 -2 -3
195 35 8 4.0999999999999998e-01 1.1849117323170510e+01 4.6926413192432728e+00 1.0085742402029583e+01 2 -2 1
127 17 3 -1.3800000000000001e-01 1.2173842245861211e+01 4.8730528712203522e+00 1.4032047244291062e+01 -1 -1 0
129 17 3 -1.3800000000000001e-01 1.0402351137491191e+01 4.4722208614097898e+00 1.2802759416986662e+01 -1 -1 0
9 9 1 8.0000000000000004e-01 8.2914810457039003e+00 4.3653617114363946e-01 1.3593495715922902e+01 1 0 -3
119 17 2 -4.6100000000000002e-01 1.4368699042130517e+01 5.2843846408265716e+00 1.0158852981249881e+01 -1 -1 0
115 17 2 -4.6100000000000002e-01 1.4731698934852611e+01 6.6593436797745884e+00 1.2223864251177698e+01 -1 -1 0
184 32 7 -8.1999999999999995e-01 1.5232571592397054e+01 6.1426373839390704e+00 1.5010430348720122e+01 0 3 -3
116 17 3 -1.3800000000000001e-01 1.5393836239760775e+01 8.3532345477932992e+00 9.6651219212961088e+00 -1 -1 0
169 27 7 -8.1999999999999995e-01 9.1518084506944053e+00 6.4392727998142121e+00 9.5248549057292244e+00 0 -5 0
128 17 4 3.1900000000000001e-01 1.1077512240987566e+01 5.4015351257301800e+00 1.3494755245728907e+01 -1 -1 0
118 17 5 9.1100000000000003e-01 1.4008047987437957e+01 6.5069324900483503e+00 1.0917702883138180e+01 -1 -1 0
121 17 6 -5.8799999999999997e-01 1.2329362337285245e+01 6.1995200192081432e+00 1.1174034539249451e+01 -1 -1 0
124 17 5 9.1100000000000003e-01 1.1439380382945245e+01 6.9075465365377147e+00 1.2466162174905621e+01 -1 -1 0
122 17 2 -4.6100000000000002e-01 1.2371402069135019e+01 7.8661165653613958e+00 1.3179944456456971e+01 -1 -1 0
125 17 2 -4.6100000000000002e-01 1.0417364596198910e+01 7.6022713553429968e+00 1.1680040000032248e+01 -1 -1 0
219 43 8 4.0999999999999998e-01 9.2647326564122956e+00 9.1752384467345713e+00 1.1721163738745114e+01 -1 -3 -1
217 43 7 -8.1999999999999995e-01 8.5468507823368682e+00 9.8123072346373998e+00 1.1462928891581869e+01 -1 -3 -1
218 43 8 4.0999999999999998e-01 7.8215246871406308e+00 9.3873420102162637e+00 1.0804958431800731e+01 -1 -3 -1
170 27 8 4.0999999999999998e-01 9.9863154846680686e+00 5.8384182533836704e+00 9.4973254252119883e+00 0 -5 0
126 17 3 -1.3800000000000001e-01 1.0308893717184684e+01 5.7388594075191932e+00 1.4563665418761026e+01 -1 -1 0
120 17 3 -1.3800000000000001e-01 1.3433751050660314e+01 8.9329993875417379e+00 1.0348670861975474e+01 -1 -1 0
29 11 2 -4.6100000000000002e-01 1.4442889939289763e+01 1.0086002167731476e+01 1.4603496060987785e+01 -1 -2 0
123 17 3 -1.3800000000000001e-01 1.3672994872987349e+01 7.6396056830826984e+00 8.6382765158045665e+00 -1 -1 0
117 17 4 3.1900000000000001e-01 1.4168851395939098e+01 7.9494326844534493e+00 9.8616997588405759e+00 -1 -1 0
185 32 8 4.0999999999999998e-01 1.4536764115394668e+01 6.8526472625139787e+00 1.4783002318396454e+01 0 3 -3
186 32 8 4.0999999999999998e-01 1.5425046351990337e+01 5.6325588204312664e+00 1.4124052535415029e+01 0 3 -3