variable        infile index data.mol
variable        mytemp index 298

# set up simulation
#read_restart    ${NAME}.restart.*

# the following information is saved to restart files
units           real
atom_style      full
boundary        p p p
pair_style      lj/cut/coul/long 7
kspace_style    pppm 0.0001
pair_modify     tail yes
pair_modify     mix arithmetic
special_bonds   amber

bond_style      harmonic
angle_style     harmonic
dihedral_style  charmm
#improper_style  cvff

read_data       ${infile}
read_data       data.mol
  orthogonal box = (0 0 0) to (15.4361 15.394 15.438)
  2 by 1 by 2 MPI processor grid
  reading atoms ...
  294 atoms
  reading velocities ...
  294 velocities
  scanning bonds ...
  4 = max bonds/atom
  scanning angles ...
  6 = max angles/atom
  scanning dihedrals ...
  12 = max dihedrals/atom
  reading bonds ...
  226 bonds
  reading angles ...
  275 angles
  reading dihedrals ...
  270 dihedrals
  4 = max # of 1-2 neighbors
  6 = max # of 1-3 neighbors
  12 = max # of 1-4 neighbors
  14 = max # of special neighbors
  special bonds CPU = 0.000414514 secs
  read_data CPU = 0.0096574 secs

#replicate       3 4 4

neighbor        2.0 bin
neigh_modify    delay 0 every 1 check yes page 1000000 one 20000
timestep        1.0
#velocity        all create ${mytemp} 314159265 mom yes rot yes dist gaussian

## end information that is saved to restart files

## create velocity profile
#minimize       1e-4 1e-6 10000 10000
#velocity        all create  ${mytemp} 314159265 units box
velocity        all zero linear units box
dump            DUMP all custom 1000 ${NAME}.lammpstrj id type x y z mol
dump            DUMP all custom 1000 mol.lammpstrj id type x y z mol
thermo_style    custom step vol temp press ke pe etotal enthalpy evdwl ecoul epair ebond eangle edihed eimp emol elong etail lx ly lz xy xz yz pxy pxz pyz pxx pyy pzz
thermo          1000
#
## thermostat and integrator

#fix             NPT all npt temp ${mytemp} ${mytemp} 100.0 iso 1.0 1.0 100.0
fix             NVT all nvt temp ${mytemp} ${mytemp} 100.0
fix             NVT all nvt temp 298 ${mytemp} 100.0
fix             NVT all nvt temp 298 298 100.0

restart         50000 restart.${NAME}.1 restart.${NAME}.2
restart         50000 restart.mol.1 restart.${NAME}.2
restart         50000 restart.mol.1 restart.mol.2
run             10000000
PPPM initialization ...
  using 12-bit tables for long-range coulomb (src/kspace.cpp:332)
  G vector (1/distance) = 0.383154
  grid = 12 12 12
  stencil order = 5
  estimated absolute RMS force accuracy = 0.0217689
  estimated relative force accuracy = 6.55565e-05
  using double precision KISS FFT
  3d grid and FFT values/proc = 3211 432
Neighbor list info ...
  update every 1 steps, delay 0 steps, check yes
  max neighbors/atom: 20000, page size: 1000000
  master list distance cutoff = 9
  ghost atom cutoff = 9
  binsize = 4.5, bins = 4 4 4
  1 neighbor lists, perpetual/occasional/extra = 1 0 0
  (1) pair lj/cut/coul/long, perpetual
      attributes: half, newton on
      pair build: half/bin/newton
      stencil: half/bin/3d/newton
      bin: standard
Per MPI rank memory allocation (min/avg/max) = 17.93 | 17.93 | 17.93 Mbytes
Step Volume Temp Press KinEng PotEng TotEng Enthalpy E_vdwl E_coul E_pair E_bond E_angle E_dihed E_impro E_mol E_long E_tail Lx Ly Lz Xy Xz Yz Pxy Pxz Pyz Pxx Pyy Pzz 
       0    3668.4289    293.60134     3507.183    256.42476   -702.58999   -446.16523   -258.52999    18.240057    4702.5151   -1319.5934     95.88792    120.56687    400.54861            0    617.00339   -6040.3485   -33.444113      15.4361       15.394       15.438            0            0            0   -2706.5119    2682.6363   -3575.4995    2365.3784    4758.7739    3397.3966 
    1000    3668.4289    310.83969   -1371.6705    271.48034   -742.60068   -471.12034   -544.50508    22.312167     4656.316   -1364.2962    94.077487    126.90186    400.71619            0    621.69554   -6042.9244   -33.444113      15.4361       15.394       15.438            0            0            0    921.03034    4969.9348   -152.96189   -1631.5363   -1938.5278   -544.94746 
    2000    3668.4289     287.0232    1111.0549    250.67956   -725.18013   -474.50057   -415.05883     2.928656    4709.6858   -1330.2458     86.44489    113.57548    405.04531            0    605.06568   -6042.8603   -33.444113      15.4361       15.394       15.438            0            0            0    3106.3503   -5728.1279   -143.84873   -327.16115    960.15796    2700.1679 
    3000    3668.4289    303.26571     1254.665     264.8654   -694.49223   -429.62683   -362.50191   -3.1038926    4721.1226   -1323.4328    94.139552    126.60106    408.19992            0    628.94053   -6041.4515   -33.444113      15.4361       15.394       15.438            0            0            0    5328.9117   -486.48994   -320.34327    3442.9352   -195.57057     516.6305 
    4000    3668.4289     300.1497   -4530.9178    262.14394   -719.48399   -457.34005   -699.74539   -24.683735    4728.4924    -1340.257    91.353427    130.55716    398.86246            0    620.77305   -6044.0657   -33.444113      15.4361       15.394       15.438            0            0            0    1705.0982   -7.5949972   -645.90921   -5627.8194   -7964.9866  0.052437059 
    5000    3668.4289    284.79573    3939.7277    248.73413   -734.19927   -485.46513   -274.68863    7.8026515     4705.089    -1330.219    86.387824    110.25218     399.3797            0    596.01971   -6043.1106   -33.444113      15.4361       15.394       15.438            0            0            0    237.56859   -7457.8274     1915.683    2987.7959    6455.9142    2375.4731 
    6000    3668.4289    302.26153   -2455.4007    263.98837   -723.71238   -459.72401   -591.08861   -24.936263    4737.8721   -1327.1151    85.643655    120.72382    397.03522            0    603.40269   -6040.0509   -33.444113      15.4361       15.394       15.438            0            0            0   -2315.2242   -2207.4039   -2595.3817    3294.3826   -9574.4507   -1086.1339 
    7000    3668.4289     289.0211   -2895.0564    252.42448   -716.07235   -463.64787   -618.53417    22.116802    4683.6266   -1337.9379     101.7032     122.1664    397.99593            0    621.86552   -6043.6812   -33.444113      15.4361       15.394       15.438            0            0            0    581.58406   -1869.1196    877.61034   -347.26717     -1819.68   -6518.2219 
    8000    3668.4289     302.2535    628.93327    263.98136   -732.90862   -468.92726   -435.27916    11.413683     4679.601   -1350.2814    88.834811    129.32931    399.20868            0     617.3728   -6041.2961   -33.444113      15.4361       15.394       15.438            0            0            0   -3858.0547   -2845.5366    3507.9207    5740.0109   -6903.3155    3050.1044 
    9000    3668.4289     299.3966    2770.9579    261.48621   -717.67109   -456.18488   -307.93788    41.338284    4672.4504   -1329.1463    92.044799    124.42002    395.01042            0    611.47524    -6042.935   -33.444113      15.4361       15.394       15.438            0            0            0   -1860.7904   -388.16829   -323.96671   -51.037813    5012.2605    3351.6509 
   10000    3668.4289    307.67125   -1415.1991     268.7131   -766.02817   -497.31507   -573.02861    14.825903    4681.5134   -1344.7546    77.302274    104.86757    396.55662            0    578.72646   -6041.0939   -33.444113      15.4361       15.394       15.438            0            0            0    6348.2163   -1491.6184     2812.001    -1818.417    -2693.708    266.52777 
   11000    3668.4289    303.73552    1715.2687    265.27572   -722.34363   -457.06791   -365.30057    5.6542412    4694.3126   -1340.5228    84.366129    134.10197    399.71107            0    618.17917   -6040.4896   -33.444113      15.4361       15.394       15.438            0            0            0   -2176.9531   -3212.1905    1458.3633    294.26414    -638.4391     5489.981 
   12000    3668.4289    330.40711    468.06811    288.57008   -740.44048    -451.8704   -426.82863    28.665378    4660.1701   -1353.9996     81.43945    131.40185    400.71786            0    613.55916   -6042.8351   -33.444113      15.4361       15.394       15.438            0            0            0    1543.5447    2224.9598   -1195.1919    1467.0823   -906.14967    843.27168 
   13000    3668.4289    294.61792    4264.8667    257.31261   -729.41881    -472.1062   -243.93467    22.094039     4689.192   -1332.7128    85.776224    115.13321    402.38455            0    603.29399   -6043.9988   -33.444113      15.4361       15.394       15.438            0            0            0   -3567.1643    1550.3225   -585.48828   -1390.9683    6758.2994     7427.269 
   14000    3668.4289    281.28273    1087.4402    245.66597   -714.44705   -468.78109   -410.60274    30.148847    4691.5876   -1322.3452    100.81248    105.33671    401.74897            0    607.89816   -6044.0816   -33.444113      15.4361       15.394       15.438            0            0            0   -869.72754    725.48656    449.12684    3948.7455    961.33265   -1647.7577 
   15000    3668.4289    301.04525   -2300.8025     262.9261   -736.09994   -473.17383   -596.26739   -10.384267    4713.4004   -1341.6225    81.774644    120.63814    403.10976            0    605.52254   -6044.6386   -33.444113      15.4361       15.394       15.438            0            0            0   -4153.9194    -3897.531    -1769.485     -5079.46   -92.222851   -1730.7246 
   16000    3668.4289    287.76658   -1757.6725    251.32881   -725.13348   -473.80467   -567.84063    24.588429    4693.6882   -1324.0551    79.705392    117.93162    401.28457            0    598.92158   -6042.3317   -33.444113      15.4361       15.394       15.438            0            0            0     426.8981    807.81725   -766.26163    4772.7667   -5365.9199   -4679.8644 
   17000    3668.4289    287.96115   -1106.3132    251.49874   -753.70204   -502.20329   -561.39135    17.941741    4657.7246   -1366.9452     86.76039    122.26256    404.22022            0    613.24317   -6042.6115   -33.444113      15.4361       15.394       15.438            0            0            0    -3097.449   -613.55759    556.51805   -1266.7843    253.20069   -2305.3559 
   18000    3668.4289    282.22318   -1370.7325    246.48733   -731.91971   -485.43237   -558.76694    16.336949    4700.5005   -1326.9429    88.311359    106.17232    400.53949            0    595.02317   -6043.7803   -33.444113      15.4361       15.394       15.438            0            0            0   -153.85229   -1251.6351   -220.60019   -5077.6994    473.69647    491.80531 
   19000    3668.4289    314.91519   -1788.9699    275.03979   -713.48833   -438.44854   -534.15892    -1.787118     4728.847   -1316.8613    90.657861    113.75907    398.95604            0    603.37298   -6043.9212   -33.444113      15.4361       15.394       15.438            0            0            0    5334.2401   -2542.7976    3146.6736    295.48674    -6140.465     478.0686 
   20000    3668.4289    289.16376    1652.2974    252.54908   -732.13499   -479.58592   -391.18755   -4.1786023    4710.5341   -1341.4244    82.832543    121.62577    404.83109            0    609.28941   -6047.7799   -33.444113      15.4361       15.394       15.438            0            0            0    2282.8401      4304.36   -568.05687    8624.5911    3474.6578   -7142.3566 
   21000    3668.4289    308.92233   -2401.4008    269.80577   -723.96464   -454.15887   -582.63447   -2.6938706    4729.5551    -1315.229    84.966319    106.23976    400.05825            0    591.26433   -6042.0901   -33.444113      15.4361       15.394       15.438            0            0            0    493.55403     1772.805    2361.0888   -1929.7147   -1523.9454   -3750.5424 
   22000    3668.4289    314.32281    1394.7166    274.52242   -748.97077   -474.44834   -399.83063    11.502072    4671.9211   -1360.4565    85.703452    121.17787    404.60444            0    611.48576   -6043.8797   -33.444113      15.4361       15.394       15.438            0            0            0    908.98912   -389.88621   -1301.5102    8294.7689    956.48955   -5067.1088 
   23000    3668.4289    305.19369    2743.9095    266.54925   -723.45446    -456.9052    -310.1053    29.959969    4681.3203   -1331.8255    94.035776    118.70877    395.62653            0    608.37107   -6043.1058   -33.444113      15.4361       15.394       15.438            0            0            0    2674.8561    1053.9177   -81.134208    2215.4342    464.77973    5551.5145 
   24000    3668.4289    320.94391    -1939.254    280.30514   -735.60252   -455.29738   -559.04799   -1.2959813    4697.9451   -1349.3998    97.346385    111.89306    404.55779            0    613.79724   -6046.0489   -33.444113      15.4361       15.394       15.438            0            0            0   -442.98182    1357.5383   -1463.4348   -2573.8435   -8824.3854     5580.467 
   25000    3668.4289    292.29118    1045.4017    255.28049   -723.35432   -468.07383   -412.14455   -10.763515    4719.7385   -1330.3927    80.012939    124.09638    402.92906            0    607.03838   -6039.3677   -33.444113      15.4361       15.394       15.438            0            0            0   -426.62711    3957.0565    -5052.276   -1621.4493   -1405.4375    6163.0919 
   26000    3668.4289    297.21958    1482.2008    259.58485   -713.50013   -453.91527   -374.61713    17.885228    4702.9956   -1318.3156    88.261762    115.17204    401.38169            0    604.81548   -6039.1964   -33.444113      15.4361       15.394       15.438            0            0            0    3556.6727    1292.8043    -1604.397    3582.6286   -117.64851    981.62238 
   27000    3668.4289    305.06341   -3289.9422    266.43547   -730.05225   -463.61678   -639.62958    17.444268    4686.8762   -1339.1328    96.315395    119.43247    393.33272            0    609.08059   -6043.4533   -33.444113      15.4361       15.394       15.438            0            0            0   -784.78378   -2094.8203   -9.9111854   -2699.2668   -1535.0372   -5635.5225 
   28000    3668.4289    330.66552    1369.3173    288.79578   -751.44827   -462.65249   -389.39364    5.0289925    4674.7123   -1359.5332    85.519383    115.75898    406.80659            0    608.08496   -6039.2746   -33.444113      15.4361       15.394       15.438            0            0            0   -301.48634   -4401.4874   -3230.3317    4845.3317    940.79327   -1678.1729 
   29000    3668.4289    291.13325   -2339.9764    254.26918   -738.60867   -484.33949   -609.52886   -12.719979    4696.7397   -1353.3847    85.710489      129.872    399.19351            0      614.776   -6037.4044   -33.444113      15.4361       15.394       15.438            0            0            0    6255.7786    301.60495   -2885.5196   -1720.0358   -3273.7939   -2026.0995 
   30000    3668.4289    275.83263   -1329.2816    240.90597   -733.55406   -492.64809   -563.76502    5.8216441    4703.7443   -1332.5475    88.641286    115.66383    394.68834            0    598.99346   -6042.1135   -33.444113      15.4361       15.394       15.438            0            0            0   -4706.4511    876.03573    557.92044   -2749.5435    -2821.244    1582.9426 
   31000    3668.4289    276.88347   -8466.5203    241.82375   -716.17323   -474.34948   -927.31062   -12.972778      4727.13   -1330.3473    98.859216    125.28742    390.02739            0    614.17402   -6044.5045   -33.444113      15.4361       15.394       15.438            0            0            0    2968.3525   -199.29688   -1631.9607   -10276.569   -10630.834   -4492.1576 
   32000    3668.4289    287.13339   -3378.0939     250.7758   -717.67199   -466.89618   -647.62513  -0.93563232    4722.3872    -1319.927    87.132076    116.37403    398.74895            0    602.25505   -6041.3786   -33.444113      15.4361       15.394       15.438            0            0            0    2385.7967   -2189.7748    444.82042   -5256.7153   -5780.9401    903.37364 
   33000    3668.4289    305.34958   -4149.0372    266.68541   -742.82509   -476.13969   -698.11431    1.0217639    4703.9905   -1335.2185    85.069411    110.25177     397.0722            0    592.39339   -6040.2307   -33.444113      15.4361       15.394       15.438            0            0            0    2045.4935   -3221.0731   -958.53056   -6070.1946   -8307.8587    1930.9416 
   34000    3668.4289    282.04628   -1749.7811    246.33283    -752.6299   -506.29707   -599.91084    5.1728011    4677.6531   -1360.6539     86.78155    132.59833    388.64415            0    608.02403   -6043.4798   -33.444113      15.4361       15.394       15.438            0            0            0     2857.706    4233.4132    1324.1962    -582.3441     -2654.38   -2012.6193 
   35000    3668.4289     293.8319    2973.5311    256.62612   -749.44582    -492.8197   -333.73497    14.444176    4687.9488   -1338.8296     79.58081     112.2615    397.54152            0    589.38382   -6041.2227   -33.444113      15.4361       15.394       15.438            0            0            0   -1823.0272    2024.8996   -2821.2298    576.08669    5884.2773    2460.2294 
   36000    3668.4289    288.04613   -3039.8866    251.57297   -734.73733   -483.16436   -645.79912   -12.731844    4705.7717   -1342.7882    93.918527    114.11988    400.01251            0    608.05092   -6035.8281   -33.444113      15.4361       15.394       15.438            0            0            0    3371.8498    904.98315    68.411783   -1306.1798   -4409.8018   -3403.6782 
   37000    3668.4289     292.8049   -5330.7581    255.72917   -743.41909   -487.68992   -772.88693    8.5346489    4656.4642   -1370.5812    98.931406    125.06136    403.16934            0     627.1621   -6035.5801   -33.444113      15.4361       15.394       15.438            0            0            0   -2932.3176   -6223.4592    172.23079   -12393.257   -254.71276   -3344.3043 
   38000    3668.4289    277.82531   -1949.0914    242.64633   -755.53483    -512.8885   -617.16543    9.9337145    4661.6147   -1373.9646    87.938967    129.61041    400.88036            0    618.42974    -6045.513   -33.444113      15.4361       15.394       15.438            0            0            0   -1321.5268   -3055.3551    3418.8508   -7802.0024    525.72953    1428.9986 
   39000    3668.4289    285.42305   -1822.1928    249.28203    -766.4785   -517.19647   -614.68429   -5.0637399    4701.7181   -1347.4962    78.784154    102.60895    399.62456            0    581.01767   -6044.1505   -33.444113      15.4361       15.394       15.438            0            0            0    1484.2805   -2412.1201    725.77575    -2685.146   -2087.7552   -693.67738 
   40000    3668.4289    265.82349   -427.62119    232.16421    -728.0935   -495.92929   -518.80714    -12.63313    4724.5948   -1329.7862    88.440342    117.93403    395.31832            0    601.69269   -6041.7478   -33.444113      15.4361       15.394       15.438            0            0            0    2961.8573   -520.65661   -2663.9063   -5856.6374    65.674275    4508.0996 
   41000    3668.4289    315.54815    4036.2743     275.5926   -748.16349   -472.57088   -256.62911   -11.518418    4725.7526   -1330.1648    83.176503    104.72509    394.09973            0    582.00132    -6044.399   -33.444113      15.4361       15.394       15.438            0            0            0    567.59884   -2168.2691    1980.7512    1293.0473    7093.6485    3722.1271 
   42000    3668.4289    337.39096   -3278.6742    294.66962    -717.6245   -422.95488   -598.36484    8.1156852    4698.5203   -1338.2129     103.2296    119.81143    397.54732            0    620.58835   -6044.8489   -33.444113      15.4361       15.394       15.438            0            0            0   -80.275991   -2176.3701   -350.61566   -3592.3387   -6936.1269     692.4429 
   43000    3668.4289    303.83951    1061.9154    265.36655   -739.00052   -473.63398   -416.82121     1.643385    4723.9622   -1318.0125    78.686182    108.95732    391.36847            0    579.01197   -6043.6181   -33.444113      15.4361       15.394       15.438            0            0            0    1038.3369   -69.442886    1032.1381    3986.8583   -1451.5679    650.45576 
   44000    3668.4289    318.31097    1888.1162    278.00559   -690.54944   -412.54385   -311.52911    10.895925    4723.6416   -1304.5612    95.555923    116.28727    402.16861            0     614.0118   -6039.0988   -33.444113      15.4361       15.394       15.438            0            0            0    719.28388   -3496.2862   -881.60801    7623.8321   -2565.2871    605.80366 
   45000    3668.4289    322.82749   -576.43582    281.95022   -729.71359   -447.76337   -478.60284   -27.597641    4747.6109    -1320.262    78.099616    111.04308    401.40568            0    590.54838   -6040.2752   -33.444113      15.4361       15.394       15.438            0            0            0   -1021.6534   -622.06112    1659.1003   -937.40318   -1231.3311     439.4268 
   46000    3668.4289    285.46294   -5372.0151    249.31687   -732.92825   -483.61138   -771.01565    12.800538    4691.9751   -1339.0743    87.518882    122.69415    395.93302            0    606.14605   -6043.8499   -33.444113      15.4361       15.394       15.438            0            0            0    3023.2533   -3329.1199    6014.2322   -6877.7135   -3827.3764   -5410.9553 
   47000    3668.4289    315.21847   -123.51225    275.30467   -746.13626   -470.83159   -477.43953   -5.4146977    4699.9308   -1350.0981    82.076426    122.19269    399.69272            0    603.96184   -6044.6142   -33.444113      15.4361       15.394       15.438            0            0            0   -111.00594   -1188.5699   -1647.8392   -5282.0856    4499.8703    411.67848 
   48000    3668.4289    317.03914   -1784.0312     276.8948   -735.32892   -458.43412   -553.88028   -7.1352129    4710.3577   -1337.5806    83.610005    118.15776    400.48394            0     602.2517   -6040.8031   -33.444113      15.4361       15.394       15.438            0            0            0    323.21751   -1595.5905    1979.2672   -1027.0568   -2631.9666   -1693.0702 
   49000    3668.4289    295.87959   -4141.7831    258.41453    -732.6233   -474.20876   -695.79529  0.045597584    4671.7221     -1367.46    92.142462     136.0002    406.69404            0     634.8367   -6039.2277   -33.444113      15.4361       15.394       15.438            0            0            0   -6064.1185   -1941.2988    1421.4102    -3001.087   -5768.1587   -3656.1035 
   50000    3668.4289    301.61798    1218.9969    263.42631   -733.93043   -470.50411   -405.28745    9.6236036    4698.2292   -1334.5403    83.215344    121.04127    396.35329            0    600.60991   -6042.3931   -33.444113      15.4361       15.394       15.438            0            0            0    1432.2299    -762.0819    3642.7165   -2216.6856    1311.3505    4562.3258 
   51000    3668.4289    304.92526    917.84797    266.31481   -746.93825   -480.62344   -431.51832    4.7154322    4686.3674   -1350.0275    77.803792    125.50637    399.77908            0    603.08924   -6041.1103   -33.444113      15.4361       15.394       15.438            0            0            0    -294.1551   -1124.7551    -547.2574    573.95525    2432.8082    -253.2195 
   52000    3668.4289    293.22052    -1220.543    256.09216   -711.49056    -455.3984   -520.69778    14.519912    4691.8016   -1335.8637    85.927394    132.68128     405.7645            0    624.37317   -6042.1853   -33.444113      15.4361       15.394       15.438            0            0            0   -1174.0316   -1249.2864   -2273.0339   -3697.3563   -3579.9692    3615.6964 
   53000    3668.4289    318.06649    936.12047    277.79206   -719.70287    -441.9108    -391.8281   -1.4258267    4719.8249   -1322.6607    82.925657    119.09202    400.94016            0    602.95783   -6041.0598   -33.444113      15.4361       15.394       15.438            0            0            0   -4260.6555   -2395.7938   -5355.4836    5267.3924    4741.5505   -7200.5814 
   54000    3668.4289    296.82725    3293.6878     259.2422   -733.17647   -473.93427   -297.72108    35.589156    4668.9635   -1340.7693     93.78935    111.91181    401.89166            0    607.59281   -6045.3219   -33.444113      15.4361       15.394       15.438            0            0            0    4201.9568    2274.0219   -749.80892     1102.252    3470.4072    5308.4041 
   55000    3668.4289    310.03107    1219.7981    270.77411   -750.97041    -480.1963   -414.93677    17.603629    4681.5469   -1342.4413    86.286859    108.69346    396.49057            0     591.4709   -6041.5919   -33.444113      15.4361       15.394       15.438            0            0            0    316.41619   -5768.7986   -3131.9937    4095.6552   -2052.3404    1616.0795 
   56000    3668.4289     290.4843    31.815952    253.70241   -749.85257   -496.15016     -494.448    15.717413    4677.0932    -1348.136    82.933391    110.91971    404.43035            0    598.28345   -6040.9467   -33.444113      15.4361       15.394       15.438            0            0            0     141.2042   -603.75472   -516.52564    115.52798   -1412.6879    1392.6077 
   57000    3668.4289    306.23168    2642.6088    267.45581   -719.01594   -451.56013   -310.17984    27.993709    4676.1596   -1336.9781    86.879867     132.3279    398.75437            0    617.96213   -6041.1314   -33.444113      15.4361       15.394       15.438            0            0            0    2619.3308   -417.52016     947.5491    7191.0583    4560.6175   -3823.8494 
   58000    3668.4289    296.04393   -1695.7773    258.55806    -738.5542   -479.99614   -570.72068    12.473172    4685.2317    -1348.376    92.808067     119.2272    397.78651            0    609.82177   -6046.0808   -33.444113      15.4361       15.394       15.438            0            0            0   -35.429475   -4349.7609   -2039.8312   -3376.0147    2940.2074   -4651.5245 
   59000    3668.4289    293.00627   -4214.4329    255.90503    -727.5763   -471.67127   -697.14458     11.78159    4677.9028   -1352.9399    109.47716    115.57258     400.3139            0    625.36364   -6042.6243   -33.444113      15.4361       15.394       15.438            0            0            0   -3129.2013    551.09957   -65.740394   -3710.4985   -3725.2385   -5207.5619 
   60000    3668.4289    311.12938    2089.3319    271.73335   -746.32199   -474.58864   -362.80882    18.120808    4681.5449   -1342.3942     82.72045    111.16196     402.1898            0    596.07221   -6042.0599   -33.444113      15.4361       15.394       15.438            0            0            0   -753.76833    -1971.088   -1921.2377    -1312.194    2188.3809    5391.8087 
   61000    3668.4289    284.33661    849.78018    248.33315    -764.4795   -516.14635   -470.68287   -2.7301443    4683.7362   -1364.2998    83.564849    115.51465    400.74077            0    599.82027   -6045.3058   -33.444113      15.4361       15.394       15.438            0            0            0    1592.9025   -201.79583    4583.8929    885.42686   -1499.2609    3163.1746 
   62000    3668.4289    283.70165    1991.5856    247.77859   -752.20002   -504.42143   -397.87105    6.6223863    4683.4812   -1356.1298    84.086501    118.19172    401.65152            0    603.92974   -6046.2334   -33.444113      15.4361       15.394       15.438            0            0            0    237.46949   -2299.4526   -1191.1218    1628.0918     4476.909   -130.24396 
   63000    3668.4289     291.2307   -4040.3345     254.3543   -711.06516   -456.71086   -672.86986   -5.1338437    4718.3782   -1330.2752    94.662576    118.76771    405.77976            0    619.21004   -6043.5195   -33.444113      15.4361       15.394       15.438            0            0            0    2695.1356    1241.7198   -5284.1351    -3940.048   -6462.0613   -1718.8943 
   64000    3668.4289    309.52848    4593.4189    270.33516   -746.07102   -475.73586    -229.9867    51.826299    4625.4646   -1363.4071    93.853804    121.24865    402.23362            0    617.33607    -6040.698   -33.444113      15.4361       15.394       15.438            0            0            0   -668.68968   -6180.2921    2622.1874     2329.021     5769.385    5681.8506 
   65000    3668.4289    284.09234   -3019.0918    248.11981   -743.34516   -495.22535   -656.74758    13.914828    4688.8629   -1341.4044    92.134077     102.6555    403.26963            0    598.05921   -6044.1821   -33.444113      15.4361       15.394       15.438            0            0            0    10.915594    3317.5117    5366.2645   -1048.7895   -1718.6457   -6289.8403 
   66000    3668.4289    313.16709    3078.2999    273.51304   -726.04117   -452.52813   -287.83825    27.208149    4670.6271   -1341.2698    90.347512    124.73636    400.14476            0    615.22863   -6039.1051   -33.444113      15.4361       15.394       15.438            0            0            0   -605.87431   -425.38415    2608.6529    2440.8891    4569.3118    2224.6986 
   67000    3668.4289    306.33125    8093.0908    267.54278   -728.14315   -460.60037   -27.617815    6.9981079    4707.8886   -1323.4766    83.615093    111.23286    400.48549            0    595.33345   -6038.3633   -33.444113      15.4361       15.394       15.438            0            0            0   -3691.0136   -832.86411     5025.799    5225.6444    15387.425    3666.2032 
   68000    3668.4289    289.37371   -3037.5971    252.73244   -717.98229   -465.24985   -627.76212    4.7649941    4694.5683   -1342.3351     106.3424    113.97234    404.03808            0    624.35282   -6041.6684   -33.444113      15.4361       15.394       15.438            0            0            0   -1796.4318    3359.9301   -3488.0833   -5571.3704   -220.17596   -3321.2448 
   69000    3668.4289    302.55721   -1759.0253    264.24661   -736.17178   -471.92517   -566.03351    15.279588    4655.6109   -1370.4486    87.069427    145.38734    401.82003            0     634.2768   -6041.3391   -33.444113      15.4361       15.394       15.438            0            0            0    286.04074   -482.96676   -2896.9752   -9232.4723   -2138.3388    6093.7352 
   70000    3668.4289    288.94501   -3567.8929    252.35803    -730.3307   -477.97267   -668.85591   -2.5797088    4692.3219   -1353.1208    90.969885    126.59661    405.22357            0    622.79007   -6042.8629   -33.444113      15.4361       15.394       15.438            0            0            0   -1871.6144   -3315.8782    1478.6458   -3757.0385    335.89339   -7282.5336 
   71000    3668.4289    313.28585    1885.9238    273.61677   -757.00788   -483.39112   -382.49368    6.2425904     4680.656   -1357.2943    85.096405    116.23988    398.95013            0    600.28641   -6044.1929   -33.444113      15.4361       15.394       15.438            0            0            0    2119.4114   -1323.9513   -3462.7608    -318.3465    3412.1255    2563.9923 
   72000    3668.4289     291.6248    466.72269    254.69849   -727.34529    -472.6468   -447.67701     14.41466    4684.4517   -1341.9701    84.791804     128.2338    401.59919            0     614.6248   -6040.8364   -33.444113      15.4361       15.394       15.438            0            0            0    294.94204    -1212.025   -2532.7429    1215.8858    679.65855   -495.37627 
   73000    3668.4289    301.65768   -167.55071    263.46098   -732.46045   -468.99947   -477.96347    18.394898    4700.3736   -1326.9767    87.130668    110.28504    397.10052            0    594.51623   -6045.7452   -33.444113      15.4361       15.394       15.438            0            0            0    1483.5629      1445.44   -2717.2131   -1578.4805   -690.25335    1766.0817 
   74000    3668.4289    312.57099    4991.5916    272.99242   -693.67657   -420.68415   -153.63264    6.1161241    4733.5275   -1299.4289    84.335013    128.62003    392.79727            0    605.75232   -6039.0725   -33.444113      15.4361       15.394       15.438            0            0            0   -1848.9626   -1259.1363   -1001.9131    3691.3714    4412.5294     6870.874 
   75000    3668.4289    306.93078    2846.9839    268.06639   -740.81933   -472.75293   -320.43852    4.9593648    4704.1862   -1334.3801    75.828673    116.66331    401.06879            0    593.56077   -6043.5257   -33.444113      15.4361       15.394       15.438            0            0            0   -1197.5268    -495.0942   -2555.5546    2091.8435   -442.46765    6891.5758 
   76000    3668.4289    289.58414   -2761.4161    252.91622   -764.44036   -511.52414   -659.26065    15.033564    4690.0776   -1336.0622    78.435845     96.26068    396.92531            0    571.62184   -6041.1734   -33.444113      15.4361       15.394       15.438            0            0            0   -2985.9051   -1542.4266    4492.0253   -4979.4514    3579.0499   -6883.8466 
   77000    3668.4289    282.05328    3493.1234    246.33895     -704.778   -458.43906     -271.556   -13.185243    4760.3214   -1295.7747    93.790666    96.464446    400.74154            0    590.99665   -6042.9108   -33.444113      15.4361       15.394       15.438            0            0            0   -1927.5393   -356.37919   -3214.3794    5281.2074    4733.8742    464.28869 
   78000    3668.4289    312.67482    -2766.358    273.08311   -699.37396   -426.29085   -574.29176   0.76632285    4746.3731   -1296.1162    91.190826     106.5538    398.99763            0    596.74226   -6043.2556   -33.444113      15.4361       15.394       15.438            0            0            0    402.05837    1784.4896    3080.8324    -2903.012   -1557.3909   -3838.6711 
   79000    3668.4289    296.91746    291.10838    259.32098   -718.76302   -459.44204   -443.86767   -16.531817    4738.2305   -1324.1002    78.750127    132.28811    394.29893            0    605.33716   -6045.7988   -33.444113      15.4361       15.394       15.438            0            0            0   -1823.4711   -4906.8107   -552.72178   -928.93834    1170.6954    631.56811 
   80000    3668.4289    281.26105   -565.36825    245.64703   -704.07747   -458.43044    -488.6778   -8.7840937    4756.7203   -1288.6443    90.392021    95.294582     398.8802            0     584.5668   -6036.5804   -33.444113      15.4361       15.394       15.438            0            0            0    -8716.759   -34.425916    -2205.514    4123.0385   -3077.7107   -2741.4326 
   81000    3668.4289    304.84773    531.81869     266.2471   -731.42314   -465.17604   -436.72359    20.366632    4674.6346   -1344.9729      97.9448    121.02251    394.58247            0    613.54978   -6039.9742   -33.444113      15.4361       15.394       15.438            0            0            0    4159.9435     -4045.93    2448.5681    1440.8031   -1414.8074    1569.4604 
   82000    3668.4289    282.65085   -1632.3559    246.86085   -747.81803   -500.95718   -588.28866    3.0384438    4707.0986   -1332.3149    78.542731    116.26943     389.6847            0    584.49687    -6042.452   -33.444113      15.4361       15.394       15.438            0            0            0   -3776.4318    3287.8304    2333.6758   -2048.1409   -1639.0504   -1209.8763 
   83000    3668.4289    302.16287   -1122.8411     263.9022    -739.2994   -475.39719    -535.4695    12.250919    4706.2116   -1326.5775    89.238908    111.80571     386.2335            0    587.27811     -6045.04   -33.444113      15.4361       15.394       15.438            0            0            0    2540.7954    3645.3975   -237.57411   -914.79278   -1959.8976   -493.83286 
   84000    3668.4289    309.32997   -21.448616    270.16179   -760.15929    -489.9975   -491.14501   -4.5820232    4713.1809   -1337.6229    78.991763    102.28958    396.18226            0     577.4636   -6046.2217   -33.444113      15.4361       15.394       15.438            0            0            0    3074.3966   -2376.9598   -2843.0768    2073.7938    1352.6207   -3490.7603 
   85000    3668.4289    291.67321   -4822.4589    254.74078   -736.12939   -481.38862   -739.39148    26.814867    4676.5714   -1345.3737    97.098907    115.35114    396.79429            0    609.24434     -6048.76   -33.444113      15.4361       15.394       15.438            0            0            0    2945.7025   -1882.1046    520.42208   -9181.0242   -4105.7431   -1180.6094 
   86000    3668.4289     287.5868    5679.3519     251.1718   -730.43897   -479.26717    -175.4203    37.025222    4682.1855    -1326.208    87.734218     120.5144    387.52046            0    595.76908   -6045.4187   -33.444113      15.4361       15.394       15.438            0            0            0    78.583113   -391.00319    3110.8307    4447.2415    4476.3586    8114.4555 
   87000    3668.4289    295.32337    466.66088    257.92874   -724.26087   -466.33213   -441.36565    26.650531     4680.687   -1338.3278     86.72916    125.52054    401.81727            0    614.06697   -6045.6654   -33.444113      15.4361       15.394       15.438            0            0            0   -4628.6577    -2979.582   -777.91676   -121.47996    2243.0526   -721.59004 
   88000    3668.4289      316.523   -2397.2165    276.44401   -725.59853   -449.15452   -577.40625    10.374697    4690.6456   -1341.4208    85.750368    133.34171    396.73018            0    615.82225    -6042.441   -33.444113      15.4361       15.394       15.438            0            0            0   -2534.4298    4203.8911   -4889.0604    -918.5257   -2940.7247   -3332.3991 
   89000    3668.4289    291.07359    3558.4642    254.21708   -739.22549   -485.00841   -294.62961    17.172115    4692.5706   -1335.9177    84.041791    115.21684     397.4336            0    596.69223   -6045.6604   -33.444113      15.4361       15.394       15.438            0            0            0   -642.26647    1619.6641   -5178.8422    5496.0211    1291.2303    3888.1412 
   90000    3668.4289    302.16459   -1360.4031    263.90371   -720.68227   -456.77856    -529.5605   -6.5008246    4746.7177   -1303.5029    75.794502    113.11287    393.91325            0    582.82062   -6043.7198   -33.444113      15.4361       15.394       15.438            0            0            0   -1857.2772    2987.9242   -1830.9041    800.09848   -3959.1818   -922.12594 
   91000    3668.4289    279.26273   -1678.1293    243.90174   -705.84841   -461.94667   -551.72704    -15.96289    4741.1069   -1313.6728    85.597108    121.96866    400.25861            0    607.82437   -6038.8168   -33.444113      15.4361       15.394       15.438            0            0            0    1205.7069   -298.26866    3121.8903   -2994.0078   -1764.7805   -275.59948 
   92000    3668.4289    299.30667    1536.7498    261.40766   -758.85398   -497.44632   -415.22979    -1.793676    4704.0022   -1344.1483    78.058334    103.54385    403.69211            0    585.29429   -6046.3568   -33.444113      15.4361       15.394       15.438            0            0            0    510.52323    3729.3092   -624.95616     409.9222   -495.83023    4696.1573 
   93000    3668.4289    300.55373    416.57119    262.49682   -749.70663   -487.20981   -464.92314   -11.906899    4718.0639   -1341.7942    71.119466    121.74729    399.22082            0    592.08758   -6047.9512   -33.444113      15.4361       15.394       15.438            0            0            0   -293.96349   -392.86908    -603.7614    1688.1603     706.9858   -1145.4325 
   94000    3668.4289     311.7828   -867.36202    272.30403   -753.09046   -480.78643   -527.19053    10.395268    4698.9414   -1337.2913    89.989515    100.20914    394.00214            0     584.2008   -6046.6279   -33.444113      15.4361       15.394       15.438            0            0            0   -247.32282   -428.15056    -953.0855    3459.2953   -2489.1817   -3572.1996 
   95000    3668.4289     271.9785   -4010.3003    237.53986   -725.72725   -488.18739   -702.73954    11.223559     4695.099   -1339.9514    91.736353    119.03338    403.45445            0    614.22418    -6046.274   -33.444113      15.4361       15.394       15.438            0            0            0   -4613.4406    2.0720993    5346.3983    -6069.687   -2331.8625   -3629.3513 
   96000    3668.4289    282.24813     475.2566    246.50912   -724.76785   -478.25873   -452.83237   -16.101645    4733.4761   -1327.0579    94.420897    109.07222     398.7969            0    602.29002   -6044.4323   -33.444113      15.4361       15.394       15.438            0            0            0   -613.69744    -2953.158    4298.8349    1372.4374    2164.7083   -2111.3759 
   97000    3668.4289    303.83975    1117.6691    265.36676   -719.73517   -454.36842   -394.57281   -5.5126879    4732.3699   -1318.6698    85.419736      116.306    397.20891            0    598.93465    -6045.527   -33.444113      15.4361       15.394       15.438            0            0            0    2234.4969   -2591.4305    1025.3428    163.40685    4098.1309   -908.53031 
   98000    3668.4289    305.41721    9.9525544    266.74447   -724.90396   -458.15948   -457.62702   -5.3363801    4732.4543   -1313.2339    88.124855    98.689631    401.51541            0     588.3299   -6040.3518   -33.444113      15.4361       15.394       15.438            0            0            0    2531.4672   -33.344998    -2771.076    3069.2869   -2201.6103   -837.81888 
   99000    3668.4289    317.43305    288.13592    277.23883   -720.60543    -443.3666   -427.95125   -5.2735007    4749.0093   -1301.7191    75.762692     104.9166    400.43443            0    581.11372   -6045.4549   -33.444113      15.4361       15.394       15.438            0            0            0    -1655.477   -2678.5259    -813.3053    543.94095    163.28481      157.182 
  100000    3668.4289    284.73407    211.29984    248.68028   -718.34547   -469.66519   -458.36059    4.2574417    4729.2289   -1312.1147    83.227432    113.44637    397.09545            0    593.76926   -6045.6011   -33.444113      15.4361       15.394       15.438            0            0            0   -1493.8479    -4579.165    1625.9213    491.50127   -3896.4412    4038.8394 
  101000    3668.4289    293.72023   -196.92021    256.52859   -751.72921   -495.20062   -505.73591     7.566442    4677.2698   -1360.9993    88.093399    129.22133    391.95531            0    609.27004   -6045.8355   -33.444113      15.4361       15.394       15.438            0            0            0    1598.6655     82.15627   -2374.0817    2354.9305     544.3212   -3490.0123 
  102000    3668.4289    288.85299   -1104.7769    252.27766   -720.01803   -467.74037   -526.84624    7.5734415     4694.799   -1342.5253    97.070783    122.16525    403.27127            0     622.5073   -6044.8978   -33.444113      15.4361       15.394       15.438            0            0            0    2388.7045    2183.2124    4916.8934    397.47445   -1334.2162   -2377.5891 
  103000    3668.4289    289.77074   -1523.2222     253.0792   -692.19042   -439.11122   -520.60402    5.8692882     4696.418   -1335.3348    99.749005    141.29377    402.10164            0    643.14441   -6037.6222   -33.444113      15.4361       15.394       15.438            0            0            0   -3421.5825    1031.0866    830.18269   -4343.9146    2314.0644   -2539.8165 
  104000    3668.4289     268.5111    277.87677    234.51151   -749.64671    -515.1352   -500.26871    17.005453    4682.8005   -1345.5521    84.129493    107.72519    404.05075            0    595.90543   -6045.3581   -33.444113      15.4361       15.394       15.438            0            0            0   -585.91126    3080.2293   -1240.0878   -1477.1567   -1608.2813    3919.0683 
  105000    3668.4289    306.03316    1758.1062    267.28243   -728.92038   -461.63795   -367.57879    0.3625477    4719.8338   -1320.7297    75.916599    118.22701    397.66569            0     591.8093   -6040.9261   -33.444113      15.4361       15.394       15.438            0            0            0   -1958.8604    2525.0923    794.53831    5281.0957   -1278.3337    1271.5567 
  106000    3668.4289    300.27999    2506.7759    262.25774   -706.10846   -443.85072   -309.73753     8.051269    4733.8019   -1300.6637    90.269916    103.00366    401.28172            0    594.55529   -6042.5169   -33.444113      15.4361       15.394       15.438            0            0            0   -2619.3091    1237.5691   -4258.6715   -195.98706    5221.2966    2495.0181 
  107000    3668.4289    285.71195    3829.3621    249.53434   -718.26941   -468.73507   -263.86315    14.360378    4702.9536   -1324.9287    85.941466     117.1969     403.5209            0    606.65927   -6042.2426   -33.444113      15.4361       15.394       15.438            0            0            0    326.45991     1497.988   -1956.8099    2059.3416    3607.6872    5821.0576 
  108000    3668.4289    282.47105   -5840.3677    246.70381   -704.57629   -457.87248   -770.33374     -19.0568    4739.4214   -1319.4633    99.714389    116.05915    399.11345            0    614.88699   -6039.8278   -33.444113      15.4361       15.394       15.438            0            0            0   -1731.6244    1324.6769   -5629.9377   -5706.6987   -1852.1011   -9962.3033 
  109000    3668.4289    303.15595    1595.0335    264.76954   -741.60338   -476.83384   -391.49911    22.365687    4683.1931   -1337.7381    88.256945    106.52923    401.34852            0    596.13469   -6043.2969   -33.444113      15.4361       15.394       15.438            0            0            0    635.45351   -1691.5607    335.88708    4782.7757     1696.396   -1694.0712 
  110000    3668.4289    336.27984    823.78259     293.6992   -707.47131   -413.77211   -369.69952    32.548823    4688.1136   -1320.8654    91.073528     121.0076    401.31302            0    613.39414   -6041.5279   -33.444113      15.4361       15.394       15.438            0            0            0     2046.544    2917.9268   -2424.3422   -833.23943    407.61306    2896.9741 
  111000    3668.4289    309.92945   -1096.4731    270.68536    -713.2585   -442.57314   -501.23475    11.390091    4710.2091   -1323.1781    89.004241    123.45867    397.45673            0    609.91964   -6044.7774   -33.444113      15.4361       15.394       15.438            0            0            0   -1320.9586    587.62274    2579.3571     3532.201   -5176.1416   -1645.4786 
  112000    3668.4289     287.5535    1776.2773    251.14271   -724.30576   -473.16305   -378.13173    6.3478321    4706.6861   -1329.9883    90.028453    116.05697    399.59712            0    605.68254   -6043.0222   -33.444113      15.4361       15.394       15.438            0            0            0   -3814.7147   -2019.2165    313.37003    1061.1452    1415.2498    2852.4369 
  113000    3668.4289    288.66334    1421.0717    252.11202   -711.01646   -458.90444   -382.87671     -12.9151    4736.3866   -1318.6652    82.841723    130.36678    394.44021            0    607.64871   -6042.1367   -33.444113      15.4361       15.394       15.438            0            0            0    2789.8494    3093.5362    2388.0487    740.84765    1248.9194    2273.4482 
  114000    3668.4289    320.04539   -1384.5937    279.52039   -709.43549   -429.91509   -503.99123   -3.5979325    4735.0696   -1310.8338    85.844231    124.49416    391.05993            0    601.39833   -6042.3055   -33.444113      15.4361       15.394       15.438            0            0            0   -3642.1949    1696.9962    208.27447    1772.3603   -2152.9652   -3773.1762 
  115000    3668.4289    277.52674    -1389.453    242.38557   -707.10733   -464.72176   -539.05788   -5.7931898    4721.0098   -1327.3177    80.880006    136.40424    402.92608            0    620.21033   -6042.5343   -33.444113      15.4361       15.394       15.438            0            0            0    3617.3959   -3123.3573   -392.58659   -368.65743   -2876.0008   -923.70092 
  116000    3668.4289     326.2852    5375.9886     284.9701   -714.76868   -429.79858   -142.18172    21.138419    4692.7674   -1329.7039     86.35133    129.51176    399.07209            0    614.93518   -6043.6097   -33.444113      15.4361       15.394       15.438            0            0            0    -1791.057    1072.8944   -1379.1821    2350.2859    8771.3706    5006.3094 
  117000    3668.4289    293.43507    1808.6598    256.27954   -746.05315   -489.77361   -393.00982   -1.3337711    4714.0814   -1333.4583    69.866773    124.67841    392.85999            0    587.40517   -6046.2059   -33.444113      15.4361       15.394       15.438            0            0            0    2259.3002    1278.1373   -3958.6742   -37.537264    1410.6339    4052.8829 
  118000    3668.4289    291.85717     1927.931    254.90144   -715.55852   -460.65708   -357.51225    5.0302151    4717.6791    -1318.295    78.078859    128.38101    396.27659            0    602.73645   -6041.0043   -33.444113      15.4361       15.394       15.438            0            0            0     4246.624    6164.9433   -2321.5683    4812.7651    2261.8756   -1290.8475 
  119000    3668.4289    296.53369   -3604.7384     258.9858   -718.80312   -459.81732    -652.6718   -2.7730833    4699.3482   -1345.3801    103.34675    120.20729    403.02291            0    626.57695   -6041.9552   -33.444113      15.4361       15.394       15.438            0            0            0    2968.6774    1457.0686    4251.6515    2038.4681   -7116.9806   -5735.7028 
  120000    3668.4289    301.92089   -3031.1542    263.69086   -696.64807    -432.9572   -595.12478   -10.153743     4721.116    -1332.444    92.963758    133.34847    409.48369            0    635.79591   -6043.4062   -33.444113      15.4361       15.394       15.438            0            0            0    602.76332   -622.09949    3653.7951   -3189.1916   -3472.6691   -2431.6019 
  121000    3668.4289    298.25539    1361.3336     260.4895   -733.47724   -472.98773   -400.15602    36.702728      4661.72   -1341.7232    89.397942    118.74655    400.10146            0    608.24595   -6040.1459   -33.444113      15.4361       15.394       15.438            0            0            0    545.74624    1595.0787   -2305.9681    50.271599    236.29864    3797.4305 
  122000    3668.4289    288.19789   -1139.7693    251.70551   -714.12299   -462.41749   -523.39545    18.204806    4688.2543   -1335.6777    101.54892    118.47142    401.53435            0    621.55469   -6042.1368   -33.444113      15.4361       15.394       15.438            0            0            0    -2746.822    3085.3765   -4417.4044   -1080.5473     856.8791   -3195.6396 
  123000    3668.4289    306.66986    776.82122    267.83851   -704.24202   -436.40351   -394.84337    2.5528419     4711.712    -1328.309     89.33944    127.79225    406.93534            0    624.06703   -6042.5739   -33.444113      15.4361       15.394       15.438            0            0            0    1876.4753    800.43809      -2156.6   -2529.3232     1743.748    3116.0389 
  124000    3668.4289    287.69622    -4868.232    251.26736   -729.44096   -478.17361   -738.62535    19.488914    4665.2283    -1359.631    94.693554    129.98774    405.50874            0    630.19004   -6044.3482   -33.444113      15.4361       15.394       15.438            0            0            0    759.80611   -241.55879     2818.353   -8393.8035   -2718.5262   -3492.3664 
  125000    3668.4289    286.39556   -1424.6478    250.13139   -725.10086   -474.96947   -551.18851   -7.6458984     4714.387   -1334.1859    90.483248    124.05604    394.54578            0    609.08507    -6040.927   -33.444113      15.4361       15.394       15.438            0            0            0    2236.4636    3396.0107   -467.52172    -878.3052   -2518.2821   -877.35604 
  126000    3668.4289    305.91203    2251.9696    267.17664   -736.43844   -469.26181   -348.78082   -2.7116832    4702.4762   -1347.0813    77.296213     126.6318    406.71487            0    610.64288   -6046.8459   -33.444113      15.4361       15.394       15.438            0            0            0     2766.342   -2271.9376     963.7868   -288.45796    4370.5665    2673.8001 
  127000    3668.4289    283.69829    2633.9631    247.77566   -742.00976    -494.2341   -353.31635   -5.7526159    4717.4482    -1330.515    79.171319    116.66281    392.67109            0    588.50521   -6042.2106   -33.444113      15.4361       15.394       15.438            0            0            0   -6391.3644    2127.1686    878.47412    5132.4455    5212.5144   -2443.0706 
  128000    3668.4289    302.85661    744.68502     264.5081   -744.56176   -480.05365    -440.2128   -1.4537778    4703.6556   -1340.3077    86.980704    108.06425    400.70097            0    595.74593   -6042.5095   -33.444113      15.4361       15.394       15.438            0            0            0    3313.2149   -1914.4545    3504.1772    -1191.686    2447.8043    977.93673 
  129000    3668.4289    312.48852   -7505.5729     272.9204    -753.7451    -480.8247    -882.3749   -10.774662    4698.1178   -1357.4371    84.264274    115.93111    403.49665            0    603.69203   -6044.7803   -33.444113      15.4361       15.394       15.438            0            0            0    210.65828    -2471.746   -2577.6459   -7695.6853   -1512.8933    -13308.14 
  130000    3668.4289    309.55173    4233.8009    270.35547   -732.72174   -462.36627   -235.85676   -5.3503393    4722.9083   -1325.5121    78.779791    120.77432    393.23622            0    592.79033     -6043.07   -33.444113      15.4361       15.394       15.438            0            0            0   -2164.5288   -899.16503   -2382.9087    888.73616    10339.465    1473.2015 
  131000    3668.4289    290.09107    644.07638    253.35897   -726.08326   -472.72429   -438.26602   0.20666621    4709.8782   -1334.0496    92.123301    114.16348    401.67958            0    607.96636   -6044.1345   -33.444113      15.4361       15.394       15.438            0            0            0   -780.88227    957.17715    336.27712   -374.65849    6694.9797   -4388.0921 
  132000    3668.4289     268.1172    1949.8063    234.16749   -739.59658   -505.42909   -401.11392    30.254501    4676.2491   -1334.8864    84.060921    109.75438    401.47456            0    595.28986   -6041.3901   -33.444113      15.4361       15.394       15.438            0            0            0   -2211.7326    3913.4891    297.83856    3425.4239    4893.0761   -2469.0812 
  133000    3668.4289    298.87941    -1744.171     261.0345   -749.39397   -488.35947   -581.67309    10.834461    4669.9115   -1362.3109    74.143846    135.90844    402.86468            0    612.91697   -6043.0569   -33.444113      15.4361       15.394       15.438            0            0            0   -293.48326    756.92238    1283.0973   -2448.7073   -4363.1459    1579.3403 
  134000    3668.4289    310.98424   -1682.9843    271.60659   -729.61865   -458.01206   -548.05218    18.058974    4668.6298   -1355.4966    97.306455     129.1492    399.42231            0    625.87796   -6042.1854   -33.444113      15.4361       15.394       15.438            0            0            0    1079.5218   -2374.7774   -954.51715    1404.2503   -3125.0573   -3328.1458 
  135000    3668.4289    300.20421   -4760.2648    262.19156   -749.11288   -486.92132   -741.59678   -10.906583    4721.3709   -1336.7727    81.695625    109.14561    396.81861            0    587.65985   -6047.2371   -33.444113      15.4361       15.394       15.438            0            0            0   -3269.9457   -976.93909    762.87006   -4876.6281   -4044.9788   -5359.1876 
  136000    3668.4289    296.51806   -2925.2939    258.97216   -738.39345    -479.4213   -635.92532   -19.002157    4696.8634   -1365.2934     88.41207    140.47201    398.01589            0    626.89997   -6043.1547   -33.444113      15.4361       15.394       15.438            0            0            0   -1127.4418    3133.2851    907.42132   -4780.2251     -1164.21   -2831.4466 
  137000    3668.4289    318.98514    1689.3815    278.59439   -743.09856   -464.50417    -374.1218    17.813854      4661.49    -1365.309    92.085021    131.54864    398.57679            0    622.21045   -6044.6128   -33.444113      15.4361       15.394       15.438            0            0            0   -3192.9456   -1855.1239   -1573.3521   -549.98418   -17.453782    5635.5825 
  138000    3668.4289    316.44461   -467.77609    276.37555   -736.69982   -460.32427   -485.35042    1.9159622    4690.6808   -1348.9624    77.063487    135.36858    399.83048            0    612.26255   -6041.5591   -33.444113      15.4361       15.394       15.438            0            0            0   -605.58556   -4022.2502    7000.0954    1851.4958    1531.8855   -4786.7096 
  139000    3668.4289    293.57628   -4888.4095    256.40287   -740.61117    -484.2083   -745.73954   -17.247001    4697.8274   -1363.5505       92.542      126.319    404.07834            0    622.93934    -6044.131   -33.444113      15.4361       15.394       15.438            0            0            0    2581.8749    2451.7524   -4154.7512   -8917.3875   -2807.9802   -2939.8608 
  140000    3668.4289    304.57995    2892.5098    266.01323   -716.66736   -450.65414   -295.90408    13.688943    4702.0915   -1330.9301    88.290542    130.30153    395.67063            0    614.26271   -6046.7106   -33.444113      15.4361       15.394       15.438            0            0            0   -4687.5548   -827.77062   -1445.8914    6399.8034    2902.4271   -624.70132 
  141000    3668.4289    293.61739    5905.0354    256.43877    -717.5402   -461.10142   -145.18042    8.7066675    4719.6405   -1315.2151    83.897889    113.14004    400.63698            0    597.67491   -6043.5622   -33.444113      15.4361       15.394       15.438            0            0            0   -1792.4825    8794.5233   -3765.3128    5779.6838    9414.8293     2520.593 
  142000    3668.4289    286.35978     2777.044    250.10015   -718.38843   -468.28829   -319.71568    15.063573    4714.3949   -1315.4092    82.816886    113.04374    401.16014            0    597.02077   -6044.8677   -33.444113      15.4361       15.394       15.438            0            0            0    2700.1734   -2740.8776    1165.6083    3915.4095    51.861882    4363.8606 
  143000    3668.4289     298.0599    35.789608    260.31876   -701.12018   -440.80142   -438.88667    30.570492    4710.7498   -1297.9219     95.87854    100.40701    400.51619            0    596.80174   -6039.2423   -33.444113      15.4361       15.394       15.438            0            0            0   -1632.8597    965.57266   -1936.0598    1700.8299    1996.7917   -3590.2528 
  144000    3668.4289    294.01156   -5178.3153    256.78304   -710.70494    -453.9219   -730.96318    7.4182056    4704.2293   -1331.2714     101.6899    115.08896    403.78759            0    620.56645   -6042.9189   -33.444113      15.4361       15.394       15.438            0            0            0    677.58512    598.51324   -4040.2268   -3353.0089   -7108.4771   -5073.4599 
  145000    3668.4289    334.57109   -1237.8238    292.20681   -709.51867   -417.31187   -483.53577   -22.436973    4743.9573   -1321.4351    87.639723     123.6797    400.59705            0    611.91647   -6042.9555   -33.444113      15.4361       15.394       15.438            0            0            0    273.86255    2671.2016    1375.7878   -4050.0643    1491.6187   -1155.0257 
  146000    3668.4289    290.33674    3498.8095    253.57353   -709.26827   -455.69474   -268.50748    12.831612     4695.841   -1333.9797    97.996759    120.03601    406.67869            0    624.71147   -6042.6523   -33.444113      15.4361       15.394       15.438            0            0            0   -722.50061   -6021.0803   -634.11242    4863.3826    3266.6968    2366.3491 
  147000    3668.4289    306.61205   -341.17374    267.78802   -709.67225   -441.88423   -460.13712   -3.8022959    4707.2688   -1334.9047    95.512094    132.42644    397.29393            0    625.23247   -6038.3713   -33.444113      15.4361       15.394       15.438            0            0            0    2572.5076    -452.8585   -843.53037   -2277.2708    833.56209    420.18753 
  148000    3668.4289    309.91786    3328.9705    270.67524   -725.31648   -454.64124   -276.54041    24.612487    4673.7856   -1341.0139    88.846078    125.51996    401.33138            0    615.69742    -6039.412   -33.444113      15.4361       15.394       15.438            0            0            0    3621.4649   -1699.5048    2425.3506    4913.8828    4664.9673    408.06142 
  149000    3668.4289    309.47387   -1653.5932    270.28747   -728.75323   -458.46576   -546.93345   -18.209476    4700.3807   -1360.5812     91.23832    134.91319     405.6765            0    631.82802   -6042.7525   -33.444113      15.4361       15.394       15.438            0            0            0   -813.34781    373.51874   -2364.3717   -1209.4161   -1493.4459   -2257.9178 
  150000    3668.4289    319.13887    1672.1577    278.72866    -701.0388   -422.31015   -332.84925    17.034332    4701.6329   -1322.0998    91.948774    120.39406    408.71816            0      621.061   -6040.7671   -33.444113      15.4361       15.394       15.438            0            0            0   -1273.6304    4540.4229   -3065.1534   -2936.8085    3527.4855    4425.7961 
  151000    3668.4289    291.67128   -2516.4648    254.73909   -727.18348   -472.44439   -607.07594   -13.156153    4719.3568   -1332.6952    83.882975    123.06446    398.56429            0    605.51173   -6038.8959   -33.444113      15.4361       15.394       15.438            0            0            0    1744.9768     719.4723    991.74453   -4745.0889    1670.7457   -4475.0512 
  152000    3668.4289    311.78325    5621.1949    272.30443   -723.31399   -451.00957   -150.27411    3.2000865    4720.2638   -1318.2916    76.801685     117.1223    401.05362            0    594.97761   -6041.7555   -33.444113      15.4361       15.394       15.438            0            0            0    3009.6208    930.38419   -5127.7968    7676.2989    -805.0931    9992.3788 
  153000    3668.4289    292.94572    1844.7244    255.85216   -736.74583   -480.89367   -382.20041    4.1583401    4691.9188   -1347.2423    85.492966    123.33024    401.67329            0    610.49649   -6043.3194   -33.444113      15.4361       15.394       15.438            0            0            0    639.08525   -1684.9975    162.60014    4196.3661    1371.5504   -33.743188 
  154000    3668.4289    296.33947   -3857.2385    258.81618    -708.3018   -449.48562   -655.84893    19.411841    4699.1118   -1324.0669    89.162932    128.97006    397.63211            0     615.7651   -6042.5906   -33.444113      15.4361       15.394       15.438            0            0            0    939.19481   -194.69401    423.27345   -1499.6621   -6090.9898   -3981.0636 
  155000    3668.4289    299.91718   -3733.1506    261.94087    -721.3781   -459.43723    -659.1618    3.1366137    4687.6698   -1350.3961    99.813413    133.37159    395.83303            0    629.01803   -6041.2026   -33.444113      15.4361       15.394       15.438            0            0            0    661.54018    2358.7294    3626.1472    -6051.948   -4372.5023   -775.00143 
  156000    3668.4289    266.98466   -5806.5087    233.17835   -715.91667   -482.73832   -793.38811   0.74980119    4697.0881   -1345.4731    96.949467    130.92224    401.68473            0    629.55644    -6043.311   -33.444113      15.4361       15.394       15.438            0            0            0    196.78023   -753.38743    2677.4041   -4953.4049    -2953.562   -9512.5593 
  157000    3668.4289    304.90439    2708.3033    266.29659   -726.88227   -460.58568   -315.69072    11.451397    4685.5262   -1346.4634    81.314836    135.64224    402.62405            0    619.58113    -6043.441   -33.444113      15.4361       15.394       15.438            0            0            0   -2260.5997   -1812.9426   -1520.6288    3924.2791    3489.7101    710.92074 
  158000    3668.4289    280.70739   -1965.8239    245.16347   -718.82633   -473.66286   -578.83497    8.7784328    4696.1026   -1335.1384    92.296671    122.75726    401.25811            0    616.31204   -6040.0194   -33.444113      15.4361       15.394       15.438            0            0            0    908.68279    2571.0773   -3069.8815   -1725.5908   -3318.7282   -853.15283 
  159000    3668.4289    334.22879    2744.0365    291.90785   -716.21975   -424.31189   -277.50519   0.31057727     4706.825   -1331.0992    86.605978    122.23643    406.03709            0    614.87949   -6038.2348   -33.444113      15.4361       15.394       15.438            0            0            0   -2259.8806   -1301.6933    696.61297   -3671.5222     6970.649    4932.9829 
  160000    3668.4289     312.1407   -2361.2594    272.61662   -731.89484   -459.27823   -585.60625   -2.3373024    4710.1696   -1328.9379    86.905088    115.97024    394.16773            0    597.04306   -6036.7702   -33.444113      15.4361       15.394       15.438            0            0            0    1061.5673    1913.5663    3940.1381   -131.37747    -5468.233   -1484.1678 
  161000    3668.4289    322.31086   -380.77397    281.49901   -716.89164   -435.39263   -455.76414    8.8920436    4707.7075   -1324.7501    93.563288    117.13278    397.16241            0    607.85848   -6041.3497   -33.444113      15.4361       15.394       15.438            0            0            0    916.67474   -1661.7248    263.49355     -819.016   -2857.7506    2534.4447 
  162000    3668.4289    307.47778   -1535.0985    268.54412   -733.67839   -465.13426   -547.26245   0.31953666    4691.3208   -1350.6598    85.952356    122.16381    408.86524            0     616.9814   -6042.3001   -33.444113      15.4361       15.394       15.438            0            0            0    390.29151    1456.1568   -2875.4181   -4737.2491    2277.4136   -2145.4601 
  163000    3668.4289    313.58872   -638.04773    273.88129   -724.17857   -450.29729   -484.43301    12.576621     4679.277   -1348.4271    85.896594    132.39299    405.95891            0     624.2485   -6040.2807   -33.444113      15.4361       15.394       15.438            0            0            0    1914.7928    584.19634   -1394.1579    2892.7716   -770.22862   -4036.6862 
  164000    3668.4289    313.08133    1029.3633    273.43814   -736.63478   -463.19665   -408.12543   -12.716215    4716.1148   -1338.2529    85.844496    116.97401    398.79964            0    601.61815   -6041.6515   -33.444113      15.4361       15.394       15.438            0            0            0    3006.4762    1121.7073   -3041.7734     990.4965    1340.4991    757.09418 
  165000    3668.4289    290.52963    12.466611    253.74199   -711.06303   -457.32104   -456.65407    12.784053    4694.4656   -1337.6502    91.952316    136.83341    397.80142            0    626.58714   -6044.8998   -33.444113      15.4361       15.394       15.438            0            0            0   -1478.4634    1359.2237   -984.51112    422.09119   -2558.7667    2174.0753 
  166000    3668.4289    299.09109   -310.00847    261.21938   -717.15015   -455.93078   -472.51631     5.116492    4674.2831   -1359.8012    90.413204    142.44106    409.79679            0    642.65106   -6039.2008   -33.444113      15.4361       15.394       15.438            0            0            0   -2084.9149    -5257.333   -3699.9571   -472.13569   -318.99736   -138.89237 
  167000    3668.4289    283.55211    2473.0797    247.64799   -749.06228   -501.41429   -369.10385    18.918925    4666.6359   -1354.2027    78.714402    122.53045    403.89561            0    605.14046   -6039.7576   -33.444113      15.4361       15.394       15.438            0            0            0    1765.4375   -1453.1668    -4198.958   -2530.6569     2040.443    7909.4531 
  168000    3668.4289    270.74123    945.88972    236.45925   -696.75832   -460.29906   -409.69371   -2.9723146    4704.0712   -1342.1333    87.618076    163.00831    394.74858            0    645.37496   -6043.2322   -33.444113      15.4361       15.394       15.438            0            0            0    336.08593    608.21647   -2391.4294   -3440.3558    3647.4623    2630.5626 
  169000    3668.4289    317.13075    1995.7802    276.97481    -727.4124   -450.43759   -343.66281    18.375615    4708.6848   -1315.9898    73.105402    116.02703    399.44492            0    588.57736   -6043.0502   -33.444113      15.4361       15.394       15.438            0            0            0    1014.2306    1850.3367   -2522.9125    3978.3892    1274.3736    734.57786 
  170000    3668.4289     308.3751    3229.5511    269.32783   -722.61421   -453.28638   -280.50452    21.103238      4684.35   -1340.7978     95.99424    115.82401    406.36537            0    618.18362   -6046.2511   -33.444113      15.4361       15.394       15.438            0            0            0   -4199.4624    -4522.505    2212.4153    7071.3856    2628.0369   -10.769323 
  171000    3668.4289    276.78297   -2849.5975    241.73598   -725.16987    -483.4339   -635.88814   -16.910221    4688.0477   -1368.4472    92.724941    140.59069    409.96166            0    643.27729   -6039.5847   -33.444113      15.4361       15.394       15.438            0            0            0     1045.483    1701.4269   -3199.2149   -8104.3136   -2466.8219     2022.343 
  172000    3668.4289    272.81705    1835.5391    238.27223   -705.15262   -466.88039   -368.67854    21.855589     4699.992   -1319.5981     78.52126    130.08401    405.84023            0     614.4455   -6041.4457   -33.444113      15.4361       15.394       15.438            0            0            0   -2635.0584    1304.8324    2434.3062   -2029.8742    1090.8974    6445.5942 
  173000    3668.4289    301.40929    3448.3855    263.24405   -715.61778   -452.37373   -267.88417    17.678573    4675.0805   -1351.3433    86.404851     151.5979     397.7228            0    635.72555   -6044.1024   -33.444113      15.4361       15.394       15.438            0            0            0    2154.7693    1491.3887   -1463.6191    3449.4593    531.13473    6364.5625 
  174000    3668.4289    292.25794   -1291.3197    255.25147   -711.50806   -456.25659   -525.34255    20.995085    4660.6762   -1360.9771    106.98088    142.21271    400.27546            0    649.46905   -6042.6484   -33.444113      15.4361       15.394       15.438            0            0            0    3561.5316    1356.9588   -745.17109    3485.5979   -6647.3521    -712.2048 
  175000    3668.4289    316.76387   -99.055365    276.65439   -742.66908   -466.01469   -471.31418    12.802343    4665.3486   -1366.9546    93.362021    130.44039    400.48309            0     624.2855   -6045.1055   -33.444113      15.4361       15.394       15.438            0            0            0    2202.2386   -1108.1739   -646.75933   -937.69732   -3416.9682    4057.4994 
  176000    3668.4289    290.78224    2773.6525    253.96262    -712.4987   -458.53608   -310.14492   -4.4364048    4740.3543   -1309.1781    83.168571    113.87519     399.6356            0    596.67936    -6045.096   -33.444113      15.4361       15.394       15.438            0            0            0    3597.7021   -511.50241   -4196.9761    1280.6273    6050.5878    989.74227 
  177000    3668.4289    279.36709    2036.4207    243.99289   -716.31739    -472.3245   -363.37544    12.142078      4682.76   -1348.1543    99.025534    126.96171    405.84971            0    631.83695   -6043.0564   -33.444113      15.4361       15.394       15.438            0            0            0    4443.5963   -4058.3458    1563.1747   -2818.6885    4250.5738    4677.3767 
  178000    3668.4289    294.67781    1902.0824    257.36492   -731.61585   -474.25093   -372.48901   0.50427752    4721.7615   -1321.1096    83.645715    103.41358    402.43445            0    589.49374   -6043.3754   -33.444113      15.4361       15.394       15.438            0            0            0     920.4646   -2714.5359   -3164.6014    5045.3409    2078.0862     -1417.18 
  179000    3668.4289    306.65621    422.46459    267.82659   -732.36147   -464.53489   -441.93292    50.140133    4634.4384   -1356.2602    92.392362    128.77714    402.72924            0    623.89874   -6040.8387   -33.444113      15.4361       15.394       15.438            0            0            0   -770.02481   -2735.6952    570.46756    1624.0749   -1824.6748    1467.9936 
  180000    3668.4289    284.43688    -1253.272    248.42073   -729.93003   -481.50929   -548.55969   -5.0089471    4683.9192   -1358.6513    89.876036    141.74151    397.10369            0    628.72123   -6037.5615   -33.444113      15.4361       15.394       15.438            0            0            0     3441.809    3771.2073    56.713577   -7.6298728     -2489.34   -1262.8462 
  181000    3668.4289    311.24116   -3511.2543    271.83098   -722.66613   -450.83516   -638.68822     6.595037    4702.0688   -1333.3532    90.709661     120.5283    399.44914            0     610.6871   -6042.0171   -33.444113      15.4361       15.394       15.438            0            0            0   -3339.7803   -1493.8946   -3875.0235   -6500.4129   -5810.2726    1776.9225 
  182000    3668.4289    307.55936   -822.74651    268.61537   -710.11393   -441.49856   -485.51572    -19.91475    4741.6475   -1322.5364    91.473405    128.17155    392.77753            0    612.42248   -6044.2692   -33.444113      15.4361       15.394       15.438            0            0            0    4406.8066    2722.1728   -3815.4964    25.625901   -987.42009   -1506.4454 
  183000    3668.4289    319.68687   -1207.6139    279.20727    -742.8587   -463.65143    -528.2591    13.244958    4691.7461   -1337.2488    76.431507    118.90169    399.05695            0    594.39015   -6042.2399   -33.444113      15.4361       15.394       15.438            0            0            0   -1701.9823    2482.1903     2007.661   -1865.4258   -1680.3227   -77.093073 
  184000    3668.4289    305.73897    3579.7201    267.02549    -723.4426   -456.41711   -264.90111    19.263094     4682.962    -1342.825    95.941197    123.39085    400.05038            0    619.38242   -6045.0501   -33.444113      15.4361       15.394       15.438            0            0            0    73.152643    2673.7381     2890.944    5386.5187    5606.2947   -253.65317 
  185000    3668.4289    308.46295    2295.6379    269.40455   -708.61819   -439.21364   -316.39638    13.309344     4705.731   -1318.0593    76.064333    127.26412    406.11269            0    609.44114   -6037.0997   -33.444113      15.4361       15.394       15.438            0            0            0    484.49894     3962.899    225.68351    4086.8883    1706.8682    1093.1573 
  186000    3668.4289    278.73197   -5209.4474    243.43819   -724.91687   -481.47868   -760.18553   -30.617645    4719.0994   -1353.4274     95.49982    131.57082    401.43987            0    628.51051   -6041.9091   -33.444113      15.4361       15.394       15.438            0            0            0    3052.0412    1191.6069    2795.0129    -6318.995   -3603.5163   -5705.8307 
  187000    3668.4289    307.89687    685.09146    268.91016   -732.03049   -463.12034   -426.46776    25.457598    4663.0012   -1351.1547     83.46276    131.33963    404.32183            0    619.12422   -6039.6136   -33.444113      15.4361       15.394       15.438            0            0            0    1822.0979    118.96048   -1161.5688    1751.9624   -1356.4357    1659.7477 
  188000    3668.4289    285.11356    2998.5022    249.01173   -728.75916   -479.74743   -319.32674    -10.44247    4739.5083   -1311.6364      82.1074    104.42608    396.34374            0    582.87722   -6040.7022   -33.444113      15.4361       15.394       15.438            0            0            0    4503.3631   -591.68127   -1912.5695    4357.6888    1256.1485    3381.6694 
  189000    3668.4289     293.9127    6806.7938    256.69669   -727.92522   -471.22852    -107.0632    23.604833    4686.1907   -1333.1166    74.886394    129.69646    400.60849            0    605.19134   -6042.9121   -33.444113      15.4361       15.394       15.438            0            0            0    456.44028    1341.6757    -1036.366    7329.9856    5638.9251    7451.4706 
  190000    3668.4289     309.7671     6220.593    270.54357   -740.01339   -469.46982    -136.6664    18.143026    4693.4121   -1332.6517    76.856679    114.23962    401.54203            0    592.63833   -6044.2068   -33.444113      15.4361       15.394       15.438            0            0            0     1200.586    351.63704   -2953.4902    13199.073    4027.8456    1434.8603 
  191000    3668.4289    316.96028   -4132.9629    276.82592   -704.12072   -427.29479   -648.40943   -15.934286    4720.8683   -1337.8887    105.76438    129.29047    398.71313            0    633.76799   -6042.8227   -33.444113      15.4361       15.394       15.438            0            0            0   -225.52751    300.85033    271.99467   -2209.6867   -5777.8327   -4411.3692 
  192000    3668.4289    298.96067    1484.9862    261.10548   -716.03013   -454.92466   -375.47749   -14.936133    4724.5252   -1333.9742    86.901176    130.12556    400.91735            0    617.94409   -6043.5633   -33.444113      15.4361       15.394       15.438            0            0            0   -531.43867   -2216.3239    1564.3259    7640.9621    4390.9119   -7576.9154 
  193000    3668.4289    322.67374    2701.7004    281.81593   -724.21157   -442.39564   -297.85394    4.2334849    4714.0217   -1322.0955    86.400533    115.37425    396.10914            0    597.88392   -6040.3506   -33.444113      15.4361       15.394       15.438            0            0            0   -15.298457    1578.0322   -3241.4062    2785.1008    4284.6224     1035.378 
  194000    3668.4289    305.29613   -810.50388    266.63872   -750.48683   -483.84811   -527.21029    3.7709496    4698.5287    -1342.343    74.080747    116.79992    400.97546            0    591.85613   -6044.6426   -33.444113      15.4361       15.394       15.438            0            0            0   -468.75968    3524.4772   -1665.9848   -722.20953   -1449.6116    -259.6905 
  195000    3668.4289    298.99519    5351.5102    261.13562   -732.02207   -470.88645    -184.5792    17.532802    4690.8054   -1336.6142    85.686285    123.76875    395.13706            0     604.5921   -6044.9524   -33.444113      15.4361       15.394       15.438            0            0            0    545.75898   -3092.2229   -1785.4061    1508.3466    3125.1192    11421.065 
  196000    3668.4289    304.51666      -1796.2    265.95795   -709.75928   -443.80133   -539.89852   -0.8335299    4739.8618   -1303.7151    79.716687    121.90697    392.33217            0    593.95583   -6042.7434   -33.444113      15.4361       15.394       15.438            0            0            0    4444.1522    3344.0446    1326.2721   -498.76887   -2118.0664   -2771.7646 
  197000    3668.4289    288.64776    612.44056    252.09842   -739.97599   -487.87758   -455.11184    5.5834714    4682.0535   -1357.4533    99.087073    121.79733    396.59291            0    617.47732   -6045.0903   -33.444113      15.4361       15.394       15.438            0            0            0    -405.6085    722.03717    1599.9672    -935.3012    1317.2539     1455.369 
[...]
 9955000    3668.4289    283.93523    1261.9255     247.9826    -756.6467    -508.6641   -441.15074    20.071904    4687.3089   -1337.9945    77.741714      102.955    400.65113            0    581.34785   -6045.3753   -33.444113      15.4361       15.394       15.438            0            0            0   -1065.6602   -2624.0031   -2235.3642    2572.9746   -463.40396    1676.2058 
 9956000    3668.4289    280.69619    3167.1816    245.15369   -737.13981   -491.98612   -322.54105    23.699038    4669.6349   -1349.9612    86.969996     125.2565    400.59484            0    612.82134   -6043.2951   -33.444113      15.4361       15.394       15.438            0            0            0   -620.37525   -2128.4052    1457.3268    1240.0451    6517.3417    1744.1579 
 9957000    3668.4289    331.48607   -2434.2099    289.51243   -740.85567   -451.34324   -581.57413    3.0444807    4679.2078   -1359.4617    93.882387    114.97533    409.74832            0    618.60604    -6041.714   -33.444113      15.4361       15.394       15.438            0            0            0    4383.5636    2151.0544    2449.0286   -6678.3979    231.33353   -855.56515 
 9958000    3668.4289    293.92088    251.67322    256.70384   -728.62644   -471.92261   -458.45802   -6.4772113    4711.6769    -1337.675    87.095512    119.75704    402.19602            0    609.04857   -6042.8747   -33.444113      15.4361       15.394       15.438            0            0            0   -7908.0354    2674.1059    2473.1183   -896.06016   -124.15309    1775.2329 
 9959000    3668.4289    304.52285    3365.1961    265.96336   -719.07842   -453.11506   -273.07616    19.026857    4718.4998   -1305.2403    76.895208    114.85137    394.41527            0    586.16186    -6042.767   -33.444113      15.4361       15.394       15.438            0            0            0    1002.4855    6506.7737   -1054.4358    1804.0468    4667.9131    3623.6283 
 9960000    3668.4289    316.35783    1354.7849    276.29977   -729.24367    -452.9439   -380.46254   -22.974101    4725.3133   -1342.4716    87.650916    133.77463    391.80238            0    613.22793   -6044.8108   -33.444113      15.4361       15.394       15.438            0            0            0    1674.4176    -147.9338    2112.0502    8523.7394   -4382.5121   -76.872666 
 9961000    3668.4289    305.30425    7002.7527    266.64581   -701.26127   -434.61546    -59.96628    9.8725717     4700.159   -1331.7163    83.142956    146.72097    400.59107            0      630.455   -6041.7478   -33.444113      15.4361       15.394       15.438            0            0            0    2480.3603   -788.03147   -1016.3997    9540.0671    9420.9586    2047.2324 
 9962000    3668.4289    294.87649   -3224.6453    257.53845   -736.76117   -479.22272   -651.74212   -21.989867    4723.4325   -1341.9001    90.554188     113.7943    400.79046            0    605.13894   -6043.3428   -33.444113      15.4361       15.394       15.438            0            0            0    3065.4545    420.62682   -2768.4931    -289.0195   -4827.4631   -4557.4534 
 9963000    3668.4289    298.90556    235.85404    261.05735   -727.54135     -466.484   -453.86575    15.188771    4661.6028    -1364.703    111.19822    111.78515    414.17831            0    637.16168   -6041.4946   -33.444113      15.4361       15.394       15.438            0            0            0   -3910.8996   -2470.6349   -3169.9604   -124.54821   -694.09364     1526.204 
 9964000    3668.4289    296.68975    5040.8074     259.1221   -723.22104   -464.09894   -194.41437    21.286785    4691.5006   -1331.6345     79.12345    131.54731    397.74274            0    608.41351    -6044.422   -33.444113      15.4361       15.394       15.438            0            0            0    117.66594   -1588.6421    1550.2807    6296.9853    5685.9038    3139.5331 
 9965000    3668.4289    330.00956   -109.61994    288.22288   -742.85884   -454.63596   -460.50066    -5.801367     4701.294   -1346.1783    88.632615    110.25271    404.43415            0    603.31948   -6041.6709   -33.444113      15.4361       15.394       15.438            0            0            0   -400.06438   -2492.1438   -1830.9847   -5705.6945    6689.4686   -1312.6339 
 9966000    3668.4289    284.10723   -1573.8677    248.13282   -717.50299   -469.37017   -553.57252    2.2493967    4711.4508   -1332.2111     95.40909    120.81482    398.48417            0    614.70808   -6045.9113   -33.444113      15.4361       15.394       15.438            0            0            0   -1776.2015    1905.9438    2509.6444    1009.1196   -2812.1725   -2918.5502 
 9967000    3668.4289    309.85518   -1267.4522    270.62049   -692.77307   -422.15258   -489.96161     13.98097    4683.6939   -1345.4592    109.04233     137.8966    405.74716            0    652.68609    -6043.134   -33.444113      15.4361       15.394       15.438            0            0            0    1064.0225    2189.5125   -487.17334    423.09594    1369.6957   -5595.1483 
 9968000    3668.4289    318.06496   -82.823246    277.79073   -722.47262   -444.68189   -449.11296    8.5599642    4704.1033   -1327.3332    83.310838    121.78534    399.76438            0    604.86055   -6039.9964   -33.444113      15.4361       15.394       15.438            0            0            0    4612.6931    6626.7691    1870.4648   -945.70238    698.15791  -0.92526648 
 9969000    3668.4289    293.59875    836.08005    256.42249   -747.13902   -490.71652   -445.98601   -5.0618916    4703.9024   -1345.9031    80.910757    120.80045    397.05285            0    598.76405   -6044.7435   -33.444113      15.4361       15.394       15.438            0            0            0    2361.6731    2042.0892   -3670.7654    494.01129     2011.477    2.7518438 
 9970000    3668.4289    304.67921     1791.199    266.09992   -729.23974   -463.13981   -367.31018    16.747096    4708.4879   -1318.0946    86.095049     107.4883    395.27153            0    588.85487   -6043.3296   -33.444113      15.4361       15.394       15.438            0            0            0     334.9671    3405.3428    -389.0661      1646.63    3707.1033    19.863783 
 9971000    3668.4289    315.80327    3950.8854    275.81542   -746.52116   -470.70574    -259.3323    21.053844    4662.2591   -1359.0795    85.882795    130.76408    395.91146            0    612.55834   -6042.3925   -33.444113      15.4361       15.394       15.438            0            0            0   -5985.3638     446.0606   -5220.3483    8957.6193    3495.9786   -600.94164 
 9972000    3668.4289    314.95953    1094.5555    275.07852   -734.26643   -459.18791    -400.6289    24.990498    4692.8964   -1325.0896    93.871827    95.095765    401.85554            0    590.82314   -6042.9765   -33.444113      15.4361       15.394       15.438            0            0            0   -80.882616   -3490.7456    2053.7122   -1001.9312   -24.548751    4310.1463 
 9973000    3668.4289    306.99624    804.25502    268.12356   -748.35558   -480.23202   -437.20416    19.666258    4670.6562     -1354.42    89.326564    119.05305    397.68484            0    606.06445   -6044.7425   -33.444113      15.4361       15.394       15.438            0            0            0    -3181.818   -4124.0297    3009.2694    3891.5217    1601.4898   -3080.2464 
 9974000    3668.4289    293.67907    182.82445    256.49264   -731.19058   -474.69794   -464.91678    7.5745522    4693.9006   -1340.5638    84.835763    126.50471     398.0328            0    609.37327    -6042.039   -33.444113      15.4361       15.394       15.438            0            0            0    1833.5821     -548.697   -2796.0894    6219.5845   -2059.3716   -3611.7395 
 9975000    3668.4289    307.51787    2285.1259    268.57914   -762.09502   -493.51588   -371.26102    15.288431    4671.4617   -1359.9029     88.27538    112.95927    396.57326            0     597.8079   -6046.6531   -33.444113      15.4361       15.394       15.438            0            0            0    657.59822    1130.5146    3396.6689   -2109.7976    5504.2541    3460.9213 
 9976000    3668.4289    291.46166   -5188.1401    254.55601    -729.5548   -474.99878   -752.56569    11.091718    4680.1107   -1354.1617    97.736009    132.04145    394.82946            0    624.60691   -6045.3641   -33.444113      15.4361       15.394       15.438            0            0            0    2712.8489   -1809.2644   -245.15849   -5329.8209   -5531.6111   -4702.9882 
 9977000    3668.4289    307.14148    2829.1199    268.25041    -732.2804   -464.02999   -312.67131    31.269563    4663.7569   -1347.3734    84.817676    133.81417    396.46114            0    615.09298   -6042.3998   -33.444113      15.4361       15.394       15.438            0            0            0    148.67393    7744.7128   -811.07462    5013.5513    2739.5923    734.21592 
 9978000    3668.4289    300.03819    744.65808    262.04655   -724.87906    -462.8325   -422.99309    7.3046798    4703.7408   -1330.1957    86.863528    117.41386    401.03925            0    605.31663   -6041.2411   -33.444113      15.4361       15.394       15.438            0            0            0   -199.05283    495.11526    1412.6815   -2889.4467     7667.553   -2544.1321 
 9979000    3668.4289    278.89482   -1833.3089    243.58042   -735.62362    -492.0432   -590.12573   -14.572522    4692.1246   -1360.5175    92.548792    125.82686    406.51824            0    624.89389   -6038.0695   -33.444113      15.4361       15.394       15.438            0            0            0    1404.3203   -563.46022   -6047.3851    4039.6217    -4605.639   -4933.9094 
 9980000    3668.4289     308.6436    629.78421    269.56233   -709.02621   -439.46388   -405.77025    7.2882488    4683.3201   -1350.1215    102.41708    132.57113    406.10709            0     641.0953   -6040.7299   -33.444113      15.4361       15.394       15.438            0            0            0   -233.15855   -6023.3171     2986.183    1434.3873   -838.48479    1293.4501 
 9981000    3668.4289    297.71966     521.6666     260.0216   -747.55364   -487.53204   -459.62274    10.509551    4670.1141   -1363.0381    91.435027    121.36352    402.68594            0    615.48449   -6043.6618   -33.444113      15.4361       15.394       15.438            0            0            0   -1130.8268    -1705.103   -2762.2522    4695.3052    -544.3472   -2585.9582 
 9982000    3668.4289    311.84545   -4936.3162    272.35875   -738.33805    -465.9793   -730.07356   -7.1044844    4693.5214   -1356.3863    100.84765     119.6018    397.59878            0    618.04822   -6042.8032   -33.444113      15.4361       15.394       15.438            0            0            0   -4247.2547   -560.35948   -186.28398   -7552.9396   -2337.5867   -4918.4222 
 9983000    3668.4289    283.30365   -2074.2653    247.43099   -739.28689   -491.85591   -602.82967   -18.744595     4713.348   -1349.9716    90.360876    116.04066    404.28318            0    610.68471    -6044.575   -33.444113      15.4361       15.394       15.438            0            0            0    86.791384    3753.3523    -365.0175    -4610.779   -3317.5591    1705.5422 
 9984000    3668.4289    317.35955   -1487.4108    277.17464   -727.23577   -450.06113   -529.63801    -17.67033    4719.5471   -1338.1372    90.401133    121.13288     399.3674            0    610.90141   -6040.0139   -33.444113      15.4361       15.394       15.438            0            0            0    589.54047   -358.31636    977.56255   -7199.5459     1422.938    1314.3754 
 9985000    3668.4289    280.32979   -4373.3447    244.83369   -740.69639    -495.8627   -729.83784   -1.7203708    4674.7579   -1369.7798    91.051785    141.58138    396.45027            0    629.08344   -6042.8174   -33.444113      15.4361       15.394       15.438            0            0            0     -327.642   -1096.2236   -2000.6795    -5758.313   -5244.1284   -2117.5927 
 9986000    3668.4289     283.8114    3570.5759    247.87445   -720.66357   -472.78912   -281.76234   -14.900192    4722.8639   -1334.6846    84.428989    129.00122    400.59079            0    614.02099   -6042.6483   -33.444113      15.4361       15.394       15.438            0            0            0    767.64234    734.95975   -2656.1944    4543.5462    7609.3999   -1441.2184 
 9987000    3668.4289    318.47345   -3195.3498    278.14749   -716.60881   -438.46132    -609.4134   -15.135641    4716.2524   -1338.8442    87.415549    126.84299    407.97683            0    622.23538   -6039.9609   -33.444113      15.4361       15.394       15.438            0            0            0   -9413.0019    315.56244    726.17805   -692.89622   -7080.8061    -1812.347 
 9988000    3668.4289    312.96277    3129.2301    273.33459   -730.73669    -457.4021   -289.98743    17.216835     4667.484   -1360.6719    93.385029    134.37837     402.1718            0    629.93521   -6045.3727   -33.444113      15.4361       15.394       15.438            0            0            0   -1420.6132   -619.47854    5917.9401    2083.4379    1759.6356    5544.6169 
 9989000    3668.4289    295.40012   -4581.0686    257.99577   -754.69489   -496.69912   -741.78753    10.077005    4660.1765   -1372.8932    86.636507    126.01362    405.54815            0    618.19828   -6043.1466   -33.444113      15.4361       15.394       15.438            0            0            0    -1260.787   -4951.8204   -6.0743655   -3131.0915   -5253.0004   -5359.1139 
 9990000    3668.4289    307.25976    4637.6319    268.35371   -715.13105   -446.77734   -198.66277    3.6366065    4709.7484   -1330.3139    88.501981    128.07164    398.60922            0    615.18284   -6043.6989   -33.444113      15.4361       15.394       15.438            0            0            0     3767.593    2171.7209   -962.89293    2567.9235    7524.8256    3820.1467 
 9991000    3668.4289    298.00692    -2943.238    260.27249   -738.84288   -478.57039   -636.03442     2.096487    4680.6872   -1357.8299    83.600202    131.05408    404.33275            0    618.98703   -6040.6136   -33.444113      15.4361       15.394       15.438            0            0            0   -927.65615   -1386.1813    -2530.417   -5526.1766   -1666.2509   -1637.2866 
 9992000    3668.4289    288.63323    4449.7971    252.08573    -734.2663   -482.18058   -244.11522    45.962041    4655.6609   -1340.8048    86.488312    116.74884    403.30138            0    606.53854   -6042.4278   -33.444113      15.4361       15.394       15.438            0            0            0   -2618.6941    1114.9817    1398.3974    6795.9574    561.16246    5992.2714 
 9993000    3668.4289    286.47867   -563.94795    250.20398   -745.71773   -495.51375   -525.68512    3.6636679     4697.225   -1345.0789    84.348037     119.3133    395.69978            0    599.36112   -6045.9675   -33.444113      15.4361       15.394       15.438            0            0            0    2166.6688    -3219.367   -468.92624   -3376.1999    4694.3439   -3009.9879 
 9994000    3668.4289    322.34728   -1973.4667    281.53082   -753.11632    -471.5855   -577.16651   0.64491767    4674.8105    -1367.132    87.151136    126.04975    400.81475            0    614.01564   -6042.5873   -33.444113      15.4361       15.394       15.438            0            0            0   -542.52704    629.78977    1132.9809   -9218.3848    1109.0554    2188.9293 
 9995000    3668.4289    305.52567    6087.1835     266.8392   -747.73279   -480.89359   -155.22761    8.6016396    4684.0671   -1348.6584    83.103029     118.7015    399.12107            0    600.92559   -6041.3271   -33.444113      15.4361       15.394       15.438            0            0            0   -404.42767   -3399.8127   -3682.9328    5771.4707    2038.0259    10452.054 
 9996000    3668.4289    288.94691    528.48003    252.35968   -742.72363   -490.36395   -462.09013    23.960075    4647.8279   -1368.2683    96.784708    130.72846    398.03152            0    625.54468   -6040.0563   -33.444113      15.4361       15.394       15.438            0            0            0   -3079.6621   -2677.3261     4635.075   -2978.6745    174.57778    4389.5368 
 9997000    3668.4289    313.30102    4694.6005    273.63001   -740.78678   -467.15677   -215.99436    55.545759    4647.6388    -1339.041    81.204323    123.01429    394.03561            0    598.25422   -6042.2255   -33.444113      15.4361       15.394       15.438            0            0            0     3791.569   -2503.9083   -1866.7673    1998.6801    3468.3425    8616.7788 
 9998000    3668.4289    298.38268     -5512.36    260.60067   -750.54672   -489.94604    -784.8588    4.0952299    4671.8519   -1369.5282    105.34115    111.67138    401.96897            0     618.9815   -6045.4753   -33.444113      15.4361       15.394       15.438            0            0            0   -1986.0497    2151.2836    2730.1676   -8121.7547   -730.13229    -7685.193 
 9999000    3668.4289    288.04144    4529.9082    251.56887   -739.56104   -487.99216   -245.64084    43.015376    4648.4576   -1352.7247    84.354286    124.08246    404.72695            0     613.1637   -6044.1977   -33.444113      15.4361       15.394       15.438            0            0            0   -442.07694    1673.8156    340.36803     3718.839    3187.6435    6683.2422 
10000000    3668.4289    312.30229    -4112.219    272.75774   -744.08335    -471.3256   -691.33044   -3.2204048    4703.8614   -1341.1077    86.470327     110.0776    400.47646            0    597.02439   -6041.7487   -33.444113      15.4361       15.394       15.438            0            0            0    -140.6653    1498.8013   -1098.1814   -6525.3241   -3283.3285   -2528.0043 
Loop time of 5364.9 on 4 procs for 10000000 steps with 294 atoms

Performance: 161.047 ns/day, 0.149 hours/ns, 1863.968 timesteps/s
93.8% CPU use with 4 MPI tasks x 1 OpenMP threads

MPI task timing breakdown:
Section |  min time  |  avg time  |  max time  |%varavg| %total
---------------------------------------------------------------
Pair    | 1464.9     | 1549.5     | 1624       | 190.0 | 28.88
Bond    | 122.52     | 127.7      | 135.68     |  43.4 |  2.38
Kspace  | 2691.3     | 2786.1     | 2890       | 161.7 | 51.93
Neigh   | 145        | 145.97     | 147.04     |   8.0 |  2.72
Comm    | 619.32     | 637.36     | 648.52     |  43.4 | 11.88
Output  | 3.1938     | 3.2483     | 3.405      |   5.0 |  0.06
Modify  | 41.64      | 44.864     | 47.391     |  37.8 |  0.84
Other   |            | 70.07      |            |       |  1.31

Nlocal:    73.5 ave 86 max 63 min
Histogram: 1 0 1 0 0 0 1 0 0 1
Nghost:    1679.5 ave 1703 max 1632 min
Histogram: 1 0 0 0 0 0 1 0 0 2
Neighs:    8946 ave 10135 max 7558 min
Histogram: 1 0 0 1 0 0 0 1 0 1

Total # of neighbors = 35784
Ave neighs/atom = 121.714
Ave special neighs/atom = 4.87755
Neighbor list builds = 338719
Dangerous builds = 0


write_restart   restart.${NAME}
write_restart   restart.mol
PPPM initialization ...
  using 12-bit tables for long-range coulomb (src/kspace.cpp:332)
  G vector (1/distance) = 0.383154
  grid = 12 12 12
  stencil order = 5
  estimated absolute RMS force accuracy = 0.0217689
  estimated relative force accuracy = 6.55565e-05
  using double precision KISS FFT
  3d grid and FFT values/proc = 3211 432
write_data	data.*
PPPM initialization ...
  using 12-bit tables for long-range coulomb (src/kspace.cpp:332)
  G vector (1/distance) = 0.383154
  grid = 12 12 12
  stencil order = 5
  estimated absolute RMS force accuracy = 0.0217689
  estimated relative force accuracy = 6.55565e-05
  using double precision KISS FFT
  3d grid and FFT values/proc = 3211 432
Total wall time: 1:29:25
