LAMMPS data file via write_data, version 3 Mar 2020, timestep = 10000000

294 atoms
8 atom types
226 bonds
5 bond types
275 angles
8 angle types
270 dihedrals
6 dihedral types

0.0000000000000000e+00 1.5793200000000001e+01 xlo xhi
0.0000000000000000e+00 1.5793200000000001e+01 ylo yhi
0.0000000000000000e+00 1.5793200000000001e+01 zlo zhi

Masses

1 6.941
2 16
3 19
4 12.01
5 32.06
6 14.01
7 16
8 1.008

Pair Coeffs # lj/cut/coul/long

1 0.0182661 2.126
2 0.209859 2.96
3 0.0609584 3.118
4 0.109326 3.4
5 0.249833 3.564
6 0.169886 3.25
7 0.155323 3.165
8 0 0

Bond Coeffs # harmonic

1 492.67 1.466
2 363.556 1.344
3 248.733 1.782
4 256.929 1.752
5 529.23 1.012

Angle Coeffs # harmonic

1 41.2526 108.48
2 45.27 121.88
3 43.0716 107.06
4 81.1647 109.67
5 71.2115 107.16
6 39.3938 103.12
7 109.646 119.18
8 37.9249 113.24

Dihedral Coeffs # charmm

1 0.143897 3 0 0
2 0.143897 3 0 0
3 0.499666 3 180 0
4 6.79545 1 180 0
5 0.499666 3 180 0
6 6.79545 1 180 0

Atoms # full

48 12 3 -1.3800000000000001e-01 4.2288425931489977e+00 1.5041046834053120e+00 4.9929543937291507e+00 -1 0 0
41 12 3 -1.3800000000000001e-01 2.6815631438026877e+00 1.3689118882719729e+00 6.5242240433996459e+00 -1 0 0
42 12 4 3.1900000000000001e-01 2.9922313127836180e+00 1.8736362546533245e+00 5.2662286622813905e+00 -1 0 0
45 12 3 -1.3800000000000001e-01 2.9029665184180384e+00 3.2027575871195073e+00 5.2829169902966067e+00 -1 0 0
44 12 2 -4.6100000000000002e-01 1.9825170597558519e+00 2.1032018218564983e+00 2.6814549684554909e+00 -1 0 0
43 12 5 9.1100000000000003e-01 1.7985639054894755e+00 1.3565904202019958e+00 3.9991925111021902e+00 -1 0 0
285 65 8 4.0999999999999998e-01 3.2745879671135341e+00 7.1396435069086204e+00 5.4908735891023808e-01 -5 4 -3
269 60 8 4.0999999999999998e-01 2.3083190050490829e+00 5.7070248288413694e+00 4.6172931179269732e+00 9 -2 5
226 46 7 -8.1999999999999995e-01 1.3883813753618037e+00 6.2848120970573724e+00 6.0651880550844250e+00 -2 6 -2
268 60 7 -8.1999999999999995e-01 2.6715861099159754e+00 5.5994550528682243e+00 3.6629647861153662e+00 9 -2 5
270 60 8 4.0999999999999998e-01 3.1777762279014037e+00 4.7159325786328097e+00 3.6558885345574512e+00 9 -2 5
170 27 8 4.0999999999999998e-01 3.9314895480419376e+00 6.5424205793576222e+00 6.9770075309189208e+00 4 2 0
228 46 8 4.0999999999999998e-01 1.2045121092674205e+00 5.8564891825848644e+00 6.9716344053626242e+00 -2 6 -2
227 46 8 4.0999999999999998e-01 5.6496960669510343e-01 6.8476532656978151e+00 5.8542580758095335e+00 -2 6 -2
169 27 7 -8.1999999999999995e-01 4.0130255725397772e+00 7.5618620825649883e+00 7.0759769048182086e+00 4 2 0
46 12 6 -5.8799999999999997e-01 1.8657399007268091e-01 1.7547142085328453e+00 4.3743024476167953e+00 -1 0 0
283 65 7 -8.1999999999999995e-01 3.6431048115323552e+00 6.9574889059559197e+00 1.4984742572856029e+00 -5 4 -3
221 44 8 4.0999999999999998e-01 1.4771878865520418e+00 2.8835052843262504e-01 1.1313865614254286e+00 3 2 0
284 65 8 4.0999999999999998e-01 3.1173933446632702e+00 6.3768466607907737e+00 2.1641859629829980e+00 -5 4 -3
208 40 7 -8.1999999999999995e-01 4.8960958927143633e-01 7.7098641332024478e+00 3.5175675214100033e-01 -1 -7 0
209 40 8 4.0999999999999998e-01 8.2170151960517179e-01 7.8150989592386146e+00 1.2816529312118348e+00 -1 -7 0
220 44 7 -8.1999999999999995e-01 1.6309451873835821e+00 7.0211140512643655e-01 2.0303322082947689e-01 3 2 0
212 41 8 4.0999999999999998e-01 2.6853425995190259e+00 7.8367408452148917e+00 4.6619018096381817e+00 -4 -1 -2
9 9 1 8.0000000000000004e-01 1.1367611647808111e+00 2.8154651846209737e+00 2.1870109079067870e-01 3 -1 4
66 13 3 -1.3800000000000001e-01 5.5222412636291871e+00 2.4507965628311328e+00 2.4031853972176478e+00 0 -4 -4
160 24 7 -8.1999999999999995e-01 6.6128742261987608e+00 7.2998519536868942e+00 5.1053191337594823e+00 -7 -5 2
161 24 8 4.0999999999999998e-01 6.0633922696665516e+00 6.8501969549042929e+00 5.8575446222033865e+00 -7 -5 2
183 31 8 4.0999999999999998e-01 1.0524179124511411e+01 1.1936071793391334e+00 4.4928876270978249e+00 -3 3 -4
120 17 3 -1.3800000000000001e-01 8.9889276551510022e+00 1.9836450760067061e+00 6.4596873627944564e+00 -4 -1 1
69 13 3 -1.3800000000000001e-01 7.2344232929380077e+00 2.3086111005829069e+00 3.6764904526418420e+00 0 -4 -4
242 51 8 4.0999999999999998e-01 9.8941517196101554e+00 6.2498498054725449e+00 2.5994163752350699e+00 0 4 1
219 43 8 4.0999999999999998e-01 7.6100051120036971e+00 4.6683303411708996e+00 6.6632534768308149e+00 -4 7 -5
67 13 3 -1.3800000000000001e-01 6.0327501501994618e+00 4.1145261152823327e+00 3.6574179496947767e+00 0 -4 -4
119 17 2 -4.6100000000000002e-01 6.0303656909437651e+00 2.0311275851032184e+00 7.0435952942563640e+00 -4 -1 1
218 43 8 4.0999999999999998e-01 9.0009976792439570e+00 4.1551304017403696e+00 5.9036356477993985e+00 -4 7 -5
68 13 4 3.1900000000000001e-01 6.5661255947344070e+00 3.1417138675084373e+00 2.8816957946855442e+00 0 -4 -4
61 13 6 -5.8799999999999997e-01 6.4701564366239142e+00 4.5864221498783255e+00 3.7998726026387675e-01 0 -4 -4
62 13 2 -4.6100000000000002e-01 8.1025587380074349e+00 2.6818759274356858e+00 6.9720884531597349e-01 0 -4 -4
64 13 5 9.1100000000000003e-01 7.5668870471521741e+00 3.8407915008513300e+00 1.4309592340900879e+00 0 -4 -4
65 13 2 -4.6100000000000002e-01 8.4650635114939874e+00 4.9662436109552592e+00 1.7605007489219400e+00 0 -4 -4
217 43 7 -8.1999999999999995e-01 8.4223172891556750e+00 4.9363190575124722e+00 6.0787643438686052e+00 -4 7 -5
5 5 1 8.0000000000000004e-01 8.7601827041796998e+00 6.8761386247044847e+00 5.3044709657651916e+00 -1 -3 0
241 51 7 -8.1999999999999995e-01 9.9513777916558883e+00 6.5994211799366038e+00 3.5051032878638320e+00 0 4 1
117 17 4 3.1900000000000001e-01 8.5559277401446288e+00 9.6319493036012960e-01 7.1386047726624700e+00 -4 -1 1
252 54 8 4.0999999999999998e-01 1.0427464950449442e+01 1.8844038205263889e+00 1.9287098465483263e+00 -5 6 4
190 34 7 -8.1999999999999995e-01 9.3652805167264273e+00 7.5212362282852734e+00 7.3656526194079222e+00 4 3 3
8 8 1 8.0000000000000004e-01 5.5471039126397494e+00 6.5133046115563173e+00 4.7811903452184051e-01 1 -4 1
81 14 3 -1.3800000000000001e-01 1.0707225870474939e+01 6.3262807820677516e+00 3.4456665347406085e-01 2 1 2
243 51 8 4.0999999999999998e-01 1.0702456728774255e+01 7.2773663921913974e+00 3.2960087431998311e+00 0 4 1
78 14 3 -1.3800000000000001e-01 1.3322379955193901e+01 5.9395418537568307e+00 3.7026498932338434e+00 2 1 2
291 67 8 4.0999999999999998e-01 1.4984232048892512e+01 8.6122364381335348e-01 1.6700144192533311e+00 2 0 -3
7 7 1 8.0000000000000004e-01 1.0924078700774459e+01 4.8244604609625930e-02 2.2984069400958276e-01 -4 4 2
53 12 4 3.1900000000000001e-01 1.4344434999310183e+01 1.9028897199092734e+00 6.6514741821459360e+00 -2 0 0
181 31 7 -8.1999999999999995e-01 1.0711462872310049e+01 1.8395599958572322e+00 3.7406834156767648e+00 -3 3 -4
52 12 3 -1.3800000000000001e-01 1.3213465921719767e+01 2.4196587027628480e+00 6.0496712677510720e+00 -2 0 0
75 14 3 -1.3800000000000001e-01 1.4921899387280130e+01 4.8275046227487719e+00 4.4342028507298741e+00 2 1 2
77 14 2 -4.6100000000000002e-01 1.4030152291682194e+01 6.0200151722107851e+00 1.4170814024204201e-01 2 1 2
290 67 8 4.0999999999999998e-01 1.3884514743265983e+01 7.4599119545455861e-01 4.7340745088056907e-01 2 0 -3
71 14 3 -1.3800000000000001e-01 1.5201797944115464e+01 5.9754433225132901e+00 2.6411422933754287e+00 2 1 2
289 67 7 -8.1999999999999995e-01 1.4535615011424881e+01 1.9588027232539784e-01 9.9681793956800735e-01 2 0 -3
76 14 6 -5.8799999999999997e-01 1.2701719374378497e+01 4.1344422947649981e+00 1.0437432189912021e+00 2 1 2
49 12 5 9.1100000000000003e-01 1.5161094982134170e+01 7.3650471608678370e-01 5.5673885089030266e+00 -2 0 0
72 14 4 3.1900000000000001e-01 1.4417608671331481e+01 5.1831936479965899e+00 3.3243910763136091e+00 2 1 2
179 30 8 4.0999999999999998e-01 1.4261853038534216e+01 7.5114352223579859e+00 4.5094195994316060e+00 -7 4 0
73 14 5 9.1100000000000003e-01 1.3936632010824516e+01 3.7564697437134593e+00 2.2555320680288560e+00 2 1 2
70 14 2 -4.6100000000000002e-01 1.3328908112742685e+01 2.7265851215385415e+00 3.1222419067484304e+00 2 1 2
54 12 3 -1.3800000000000001e-01 1.5131092356597948e+01 2.9465564615182149e+00 7.0602253573035894e+00 -2 0 0
74 14 2 -4.6100000000000002e-01 1.5052099258241597e+01 3.2680810619897338e+00 1.4233458861102306e+00 2 1 2
51 12 3 -1.3800000000000001e-01 1.3770336828081371e+01 1.3501744847378496e+00 7.7326637549110719e+00 -2 0 0
182 31 8 4.0999999999999998e-01 1.1703309426805580e+01 1.8155048391475699e+00 3.4861447922750806e+00 -3 3 -4
251 54 8 4.0999999999999998e-01 1.1238572453666455e+01 3.1625552008553339e+00 1.1266068592944443e+00 -5 6 4
250 54 7 -8.1999999999999995e-01 1.0721699734131462e+01 2.2661021737643354e+00 9.8422616901265014e-01 -5 6 4
210 40 8 4.0999999999999998e-01 1.5327041961920067e+01 7.3175227410686290e+00 3.2089083262008011e-01 -2 -7 0
133 18 5 9.1100000000000003e-01 2.3355465891995990e-02 5.6907539527300530e+00 1.0120477307278779e+01 -1 1 0
130 18 2 -4.6100000000000002e-01 8.6926184613406410e-01 5.2984728379646491e+00 9.0089980318431753e+00 -1 1 0
56 13 3 -1.3800000000000001e-01 4.8352996821019261e+00 2.0138564469046556e+00 1.3489314689855686e+01 0 -4 -5
30 11 3 -1.3800000000000001e-01 1.5087070880666156e+00 1.6971262859070966e+00 1.2035486615997721e+01 2 1 -3
134 18 2 -4.6100000000000002e-01 3.0137308943393071e-01 5.0873213382892439e+00 1.1410974326010571e+01 -1 1 0
57 13 4 3.1900000000000001e-01 5.2229266185362526e+00 2.4697369328225647e+00 1.4701064113965833e+01 0 -4 -5
276 62 8 4.0999999999999998e-01 1.6641958326566904e+00 4.9191571439575617e+00 1.2579333059470093e+01 0 -2 -4
129 17 3 -1.3800000000000001e-01 3.7518461013592792e+00 4.3799516460449324e+00 1.0233600461777799e+01 -4 -1 1
126 17 3 -1.3800000000000001e-01 4.4168102708742349e+00 2.2656677034192785e+00 1.0705519436056123e+01 -4 -1 1
101 16 3 -1.3800000000000001e-01 5.1253562443513143e+00 6.9640456679225844e+00 1.0645192008325791e+01 1 -2 -1
274 62 7 -8.1999999999999995e-01 2.3774201820184211e+00 4.3853835791818163e+00 1.3028131592997161e+01 0 -2 -4
275 62 8 4.0999999999999998e-01 3.1312569500777006e+00 4.1015478949173945e+00 1.2402864712291237e+01 0 -2 -4
55 13 2 -4.6100000000000002e-01 5.2501879474253874e+00 5.1498928327239550e+00 1.4256096931746857e+01 0 -4 -5
60 13 3 -1.3800000000000001e-01 4.1746547784944035e+00 2.6500848920702929e+00 1.5573504201895272e+01 0 -4 -5
136 18 6 -5.8799999999999997e-01 2.4020690204359887e-01 7.4241144881871133e+00 1.0109038646645036e+01 -1 1 0
25 11 2 -4.6100000000000002e-01 8.0506593656940795e-01 5.3761760011392346e-01 8.9743810041841794e+00 2 1 -3
246 52 8 4.0999999999999998e-01 2.7074636017434357e+00 7.1960462911031984e+00 1.3685348239827675e+01 4 -2 -3
127 17 3 -1.3800000000000001e-01 4.0559212539650771e+00 2.8863811764940546e+00 8.7055249074658025e+00 -4 -1 1
215 42 8 4.0999999999999998e-01 2.1432569700860356e+00 4.7271278252931204e+00 1.4674416105581422e+01 2 -1 -2
214 42 7 -8.1999999999999995e-01 1.6064336298116171e+00 4.8466002396331378e+00 1.5599451380452823e+01 2 -1 -2
128 17 4 3.1900000000000001e-01 4.5819312155239951e+00 3.3329911258667062e+00 9.8627393534345593e+00 -4 -1 1
137 18 2 -4.6100000000000002e-01 2.1088929293252074e+00 7.3816040628313733e+00 1.1802522881517879e+01 -1 1 0
222 44 8 4.0999999999999998e-01 1.6315114419933410e+00 1.0409230391989645e-01 1.5190761101017060e+01 3 2 -1
27 11 4 3.1900000000000001e-01 1.0276884684708447e+00 4.7186104285741398e-01 1.1602156601589693e+01 2 1 -3
244 52 7 -8.1999999999999995e-01 2.6724942834919649e+00 7.3919627741679941e+00 1.4739390011616484e+01 4 -2 -3
245 52 8 4.0999999999999998e-01 1.7158996384644527e+00 7.5231515833005558e+00 1.5164172945687588e+01 4 -2 -3
216 42 8 4.0999999999999998e-01 8.9828534694807760e-01 5.5628050788179140e+00 1.5536205393606348e+01 2 -1 -2
259 57 7 -8.1999999999999995e-01 6.7704929342519575e+00 7.7576869302839500e+00 1.5215952077160770e+01 4 4 2
100 16 2 -4.6100000000000002e-01 8.4357174727445585e+00 7.0857554194669099e+00 1.0524978720674950e+01 1 -2 -1
164 25 8 4.0999999999999998e-01 1.0019810303251321e+01 4.9267827389011815e-01 1.2951879846365038e+01 -3 0 1
115 17 2 -4.6100000000000002e-01 6.3560068336887401e+00 4.0064305998961686e-02 8.3737726219704260e+00 -4 -1 1
63 13 3 -1.3800000000000001e-01 6.0480361658919906e+00 1.5300384398634923e+00 1.5158894565260905e+01 0 -4 -5
59 13 2 -4.6100000000000002e-01 7.4097309475868487e+00 3.9117699793308747e+00 1.3869699810141812e+01 0 -4 -5
271 61 7 -8.1999999999999995e-01 9.6988979851144226e+00 1.6182448068934878e+00 1.4362057434175384e+01 -2 -7 0
122 17 2 -4.6100000000000002e-01 6.9574261343799781e+00 4.3869611762057668e+00 1.0865331460518860e+01 -4 -1 1
273 61 8 4.0999999999999998e-01 8.8374265228712758e+00 2.1876857612983165e+00 1.4420660597658983e+01 -2 -7 0
121 17 6 -5.8799999999999997e-01 7.2436338057796341e+00 2.2035729019592032e+00 9.3813838601596782e+00 -4 -1 1
6 6 1 8.0000000000000004e-01 8.9661147279441131e+00 4.9354952693773404e+00 1.0353569843380187e+01 4 -1 0
124 17 5 9.1100000000000003e-01 6.3600327067917855e+00 3.7440187091942079e+00 9.6319769053229454e+00 -4 -1 1
104 16 2 -4.6100000000000002e-01 7.1923091430675363e+00 7.1927822254740423e+00 1.2682379475812452e+01 1 -2 -1
103 16 5 9.1100000000000003e-01 7.4935706673181581e+00 7.8281688536993892e+00 1.1397911620997217e+01 1 -2 -1
265 59 7 -8.1999999999999995e-01 1.0300546304057223e+01 3.9167923666340436e+00 9.0115099059350108e+00 -2 -2 -1
229 47 7 -8.1999999999999995e-01 9.7745213494206045e+00 4.1630405321628166e+00 1.1979368355305015e+01 1 -5 -1
58 13 5 9.1100000000000003e-01 6.0873840770381049e+00 3.9600644136924879e+00 1.4532865369801797e+01 0 -4 -5
125 17 2 -4.6100000000000002e-01 6.5300533923199300e+00 4.5609080920120304e+00 8.4493034342473319e+00 -4 -1 1
231 47 8 4.0999999999999998e-01 1.0168998043105519e+01 4.5781011171043291e+00 1.2791754662265442e+01 1 -5 -1
272 61 8 4.0999999999999998e-01 1.0342462503982187e+01 1.9914681650385213e+00 1.5114848778843610e+01 -2 -7 0
230 47 8 4.0999999999999998e-01 1.0516315524961543e+01 3.5483713537128696e+00 1.1703427486715855e+01 1 -5 -1
118 17 5 9.1100000000000003e-01 6.9619398845100688e+00 1.2371361685694888e+00 7.9019365004503754e+00 -4 -1 1
191 34 8 4.0999999999999998e-01 9.8411861366332722e+00 7.1630343285785045e+00 8.1845842947999099e+00 4 3 3
116 17 3 -1.3800000000000001e-01 9.5491753674511912e+00 6.1124156326145873e-01 7.9707925876859278e+00 -4 -1 1
288 66 8 4.0999999999999998e-01 8.1470946266553206e+00 3.2353110337480240e-01 1.4566036766231820e+01 4 -3 -2
261 57 8 4.0999999999999998e-01 6.9779074618788277e+00 7.6327889287228254e+00 1.4198677358520474e+01 4 4 2
144 18 3 -1.3800000000000001e-01 1.5197782578623361e+01 7.0696761385513254e+00 1.3166011794699257e+01 -2 1 0
79 14 5 9.1100000000000003e-01 1.2998281334069304e+01 5.1854969064321308e+00 1.5469758083999746e+01 2 1 1
224 45 8 4.0999999999999998e-01 1.2143299040241846e+01 3.0818465436027442e-01 1.3752936277479444e+01 1 -3 0
258 56 8 4.0999999999999998e-01 1.2760511254015981e+01 2.0380532142635284e+00 1.0491029920562370e+01 -2 -1 2
223 45 7 -8.1999999999999995e-01 1.2563379835948671e+01 5.0024413089392129e-02 1.4618933907226934e+01 1 -3 0
28 11 5 9.1100000000000003e-01 1.5721836310942217e+01 6.2995951426913455e-01 1.0134842915043885e+01 1 1 -3
84 14 3 -1.3800000000000001e-01 1.1783901904961100e+01 7.3355666210828261e+00 1.4476543470810531e+01 2 1 1
267 59 8 4.0999999999999998e-01 1.0801884084606193e+01 4.1993421262256181e+00 8.1415715749295448e+00 -2 -2 -1
163 25 7 -8.1999999999999995e-01 1.0571710064172684e+01 8.6690787758279264e-03 1.2205231036805836e+01 -3 0 1
256 56 7 -8.1999999999999995e-01 1.1770255548027746e+01 2.1596138532774831e+00 1.0636725565064719e+01 -2 -1 2
82 14 3 -1.3800000000000001e-01 1.0687189207040872e+01 5.5379626234831543e+00 1.4280429270858125e+01 2 1 1
266 59 8 4.0999999999999998e-01 1.0912460470707666e+01 3.1971855914251388e+00 9.4317040289944085e+00 -2 -2 -1
257 56 8 4.0999999999999998e-01 1.1359264060350096e+01 1.5357133595589672e+00 1.1379068431220885e+01 -2 -1 2
132 18 4 3.1900000000000001e-01 1.4039986184479917e+01 5.3779420169663261e+00 9.8199575906004810e+00 -2 1 0
138 18 3 -1.3800000000000001e-01 1.3771385990699802e+01 4.1520508178131212e+00 9.3931347063552035e+00 -2 1 0
135 18 3 -1.3800000000000001e-01 1.3317922236328235e+01 5.6792384074419893e+00 1.0924893402337084e+01 -2 1 0
80 14 2 -4.6100000000000002e-01 1.3404542112130610e+01 4.3309085587005489e+00 1.4310499742052276e+01 2 1 1
29 11 2 -4.6100000000000002e-01 1.4594509947772609e+01 1.5569536343605845e+00 1.0366036095867308e+01 1 1 -3
83 14 4 3.1900000000000001e-01 1.1513880150536124e+01 6.2222247514766824e+00 1.5098394811560691e+01 2 1 1
205 39 7 -8.1999999999999995e-01 1.5113966708359490e+01 2.2020193940258981e+00 1.4295382480684562e+01 -8 10 5
207 39 8 4.0999999999999998e-01 1.4554930393908379e+01 1.4751187370266894e+00 1.3955306633527801e+01 -8 10 5
131 18 3 -1.3800000000000001e-01 1.3561086672876440e+01 6.2150827265664192e+00 8.8627204908397434e+00 -2 1 0
206 39 8 4.0999999999999998e-01 1.4541737725858248e+01 3.1051967298588754e+00 1.4405053503121186e+01 -8 10 5
111 16 3 -1.3800000000000001e-01 1.1018097503987923e+01 7.7506247110639119e+00 1.0024481609815840e+01 1 -2 -1
185 32 8 4.0999999999999998e-01 1.1422210307274838e+00 1.4170838937444794e+01 3.1381632767601686e+00 5 -4 1
184 32 7 -8.1999999999999995e-01 1.2647288519064424e+00 1.3214080697539059e+01 2.9305639494097400e+00 5 -4 1
211 41 7 -8.1999999999999995e-01 2.5116792710128855e+00 8.8088776261578214e+00 4.9094867996999989e+00 -4 -1 -2
255 55 8 4.0999999999999998e-01 4.1422258372496543e+00 9.1315238544039108e+00 2.1238724295373652e+00 1 5 -1
3 3 1 8.0000000000000004e-01 1.2805650087191047e+00 1.2665036653056445e+01 8.2795249954344541e-01 1 1 4
186 32 8 4.0999999999999998e-01 1.9112855602254668e+00 1.2698291296426367e+01 3.5708459933436694e+00 5 -4 1
253 55 7 -8.1999999999999995e-01 3.6715490909345321e+00 9.8749216822324897e+00 2.6447888104392168e+00 1 5 -1
254 55 8 4.0999999999999998e-01 4.0714670278229610e+00 1.0855381315213839e+01 2.5120877613515447e+00 1 5 -1
97 15 3 -1.3800000000000001e-01 4.2953767472169417e+00 1.5389739009538101e+01 1.9133202787809414e+00 0 1 -1
247 53 7 -8.1999999999999995e-01 3.3010936911646622e+00 1.2069178813424593e+01 4.8167978397065898e+00 -4 0 -4
92 15 2 -4.6100000000000002e-01 4.1473628610971556e+00 1.2226130344609450e+01 1.5930772952104877e+00 0 1 -1
213 41 8 4.0999999999999998e-01 2.9063934538845548e+00 9.4231496553228382e+00 4.1561415007254929e+00 -4 -1 -2
168 26 8 4.0999999999999998e-01 1.1893158145905991e+00 9.5539373158528953e+00 6.0091054230349332e+00 6 -1 -8
248 53 8 4.0999999999999998e-01 3.0242297527173307e+00 1.3001837764489858e+01 5.0822974522781541e+00 -4 0 -4
249 53 8 4.0999999999999998e-01 4.2578237760877524e+00 1.1915361995284851e+01 5.0561536318624212e+00 -4 0 -4
202 38 7 -8.1999999999999995e-01 1.3061025619019553e+00 1.0592563865402063e+01 7.1909472966738286e-01 4 5 -4
203 38 8 4.0999999999999998e-01 1.9823556673116196e+00 1.0321763076816023e+01 1.5176770064842695e+00 4 5 -4
172 28 7 -8.1999999999999995e-01 3.8124667286591063e-01 1.2777638713052479e+01 6.5330508303639974e+00 -4 -5 8
174 28 8 4.0999999999999998e-01 4.1602209320358763e-01 1.2946195667305567e+01 5.5048560180925179e+00 -4 -5 8
204 38 8 4.0999999999999998e-01 1.0777020597698650e+00 9.7512839844543748e+00 2.7329107658997237e-01 4 5 -4
50 12 2 -4.6100000000000002e-01 3.8897108245321149e-01 1.5732266921567325e+01 6.2381740858136832e+00 -1 -1 0
96 15 3 -1.3800000000000001e-01 5.1773749519121344e+00 1.4400462588640172e+01 3.6265376872306891e+00 0 1 -1
166 26 7 -8.1999999999999995e-01 7.2555257918689120e-01 9.9685603637758025e+00 6.8365844160018527e+00 6 -1 -8
173 28 8 4.0999999999999998e-01 1.9874760614362150e-01 1.1792298634811003e+01 6.7525510815989049e+00 -4 -5 8
40 12 2 -4.6100000000000002e-01 1.8291956219266361e+00 1.5726077919493060e+01 3.8871922352704584e+00 -1 -1 0
171 27 8 4.0999999999999998e-01 3.4080239646194590e+00 7.9162432345416738e+00 6.3033981118350324e+00 4 2 0
159 23 8 4.0999999999999998e-01 6.1325168670009482e+00 1.3738192823598048e+01 6.1860265747273369e+00 -3 -10 -1
157 23 7 -8.1999999999999995e-01 5.5537705923364422e+00 1.2898790121821134e+01 6.2601247090378074e+00 -3 -10 -1
158 23 8 4.0999999999999998e-01 5.9732575393750276e+00 1.2265762296163969e+01 6.9222998625744232e+00 -3 -10 -1
123 17 3 -1.3800000000000001e-01 8.4764051726965910e+00 1.5785683153845431e+01 6.2161474276917330e+00 -4 -2 1
176 29 8 4.0999999999999998e-01 9.6899561307486941e+00 1.3916360398769354e+01 1.8426994649782251e+00 -3 -9 -7
99 15 3 -1.3800000000000001e-01 6.4796552483218193e+00 1.5243523434925164e+01 2.0439532406083605e+00 0 1 -1
94 15 5 9.1100000000000003e-01 5.3253230391020656e+00 1.3059753154309400e+01 1.4007987745840111e+00 0 1 -1
15 10 3 -1.3800000000000001e-01 8.8763854525873143e+00 1.2902265747044126e+01 3.4686519717462132e+00 -1 -3 3
98 15 4 3.1900000000000001e-01 5.3203798850424917e+00 1.4614507593016175e+01 2.2823909953401373e+00 0 1 -1
11 10 3 -1.3800000000000001e-01 7.7653548517149504e+00 1.1375055326051900e+01 4.7501928258251782e+00 -1 -3 3
12 10 4 3.1900000000000001e-01 8.9244310600392840e+00 1.1886297246969033e+01 4.4042635619586887e+00 -1 -3 3
95 15 2 -4.6100000000000002e-01 6.5673013939420777e+00 1.2263834668901684e+01 1.5331996378263764e+00 0 1 -1
18 10 3 -1.3800000000000001e-01 9.3541398160919371e+00 1.2650249881934583e+01 5.4550705412172249e+00 -1 -3 3
281 64 8 4.0999999999999998e-01 7.7358272958819416e+00 1.0779261028655819e+01 6.8626629412051809e-01 0 -5 9
282 64 8 4.0999999999999998e-01 8.4180034399674799e+00 9.4204058265611827e+00 1.4186716826883254e+00 0 -5 9
10 10 2 -4.6100000000000002e-01 9.5492664656900690e+00 9.9390976441484948e+00 2.8036803175499729e+00 -1 -3 3
280 64 7 -8.1999999999999995e-01 8.0860291553857131e+00 9.8317590552961640e+00 5.0946937386900348e-01 0 -5 9
192 34 8 4.0999999999999998e-01 9.1040128743806132e+00 8.4733975872411396e+00 7.6220270174200433e+00 4 3 3
13 10 5 9.1100000000000003e-01 1.0121806254619756e+01 1.0568548402404312e+01 3.9779202601831654e+00 -1 -3 3
175 29 7 -8.1999999999999995e-01 1.0165965627054925e+01 1.4753626466322320e+01 1.6257316553380341e+00 -3 -9 -7
162 24 8 4.0999999999999998e-01 6.2271798366564948e+00 7.9487362595722137e+00 4.5030016949914327e+00 -7 -5 2
292 68 7 -8.1999999999999995e-01 1.5160226652072637e+01 1.3339510561404419e+01 5.4870851507466811e-01 -3 -9 2
294 68 8 4.0999999999999998e-01 1.4316186517703908e+01 1.2881801697945631e+01 9.7949794621654995e-01 -3 -9 2
47 12 2 -4.6100000000000002e-01 1.4238822049565162e+01 1.5759823677576160e+01 4.7223175021445538e+00 -2 -1 0
177 29 8 4.0999999999999998e-01 1.0793170940887691e+01 1.4988909589826241e+01 2.3763532552560487e+00 -3 -9 -7
19 10 5 9.1100000000000003e-01 1.2263082580712780e+01 1.1308379077754635e+01 2.0088414190960262e+00 -1 -3 3
195 35 8 4.0999999999999998e-01 1.3163333221989870e+01 1.5493735642968188e+01 3.5165740816230020e+00 -6 1 -1
167 26 8 4.0999999999999998e-01 1.5680953318051561e+01 9.3280262308062394e+00 6.9333346361715034e+00 5 -1 -8
151 21 7 -8.1999999999999995e-01 1.3328068712696021e+01 1.2677593081476312e+01 5.6187683438325688e+00 -2 6 0
180 30 8 4.0999999999999998e-01 1.4070372770977363e+01 8.6751742544483115e+00 5.8945514608335934e+00 -7 4 0
152 21 8 4.0999999999999998e-01 1.3983237051737223e+01 1.3412502210618992e+01 5.7201936159206372e+00 -2 6 0
153 21 8 4.0999999999999998e-01 1.2907128475247198e+01 1.2675620396009544e+01 4.7145889881908731e+00 -2 6 0
21 10 3 -1.3800000000000001e-01 1.3942545196327702e+01 9.6463728632118908e+00 5.5724668064129335e-01 -1 -3 3
194 35 8 4.0999999999999998e-01 1.2837399235083561e+01 1.4105380559238432e+01 2.7426453991694228e+00 -6 1 -1
20 10 2 -4.6100000000000002e-01 1.3155266111417578e+01 1.2497644867264366e+01 1.9938137781153258e+00 -1 -3 3
193 35 7 -8.1999999999999995e-01 1.2431798053695799e+01 1.5009750652970412e+01 3.0656492318182540e+00 -6 1 -1
16 10 6 -5.8799999999999997e-01 1.1659676073911637e+01 1.1307232037075776e+01 3.5745314043449712e+00 -1 -3 3
22 10 3 -1.3800000000000001e-01 1.2414646598798830e+01 8.7010907323739417e+00 1.8793173696686349e+00 -1 -3 3
24 10 3 -1.3800000000000001e-01 1.4151676751616009e+01 9.6412122079854594e+00 2.7254964171767426e+00 -1 -3 3
293 68 8 4.0999999999999998e-01 1.5004563322711178e+01 1.4333447804045875e+01 4.8472400265252763e-01 -3 -9 2
150 20 8 4.0999999999999998e-01 1.2511714363182101e+01 1.0161599468158458e+01 6.7459345810799025e+00 -2 0 -1
14 10 2 -4.6100000000000002e-01 1.0545609881072386e+01 9.7119678110310570e+00 5.0587574932676098e+00 -1 -3 3
148 20 7 -8.1999999999999995e-01 1.3497946749619539e+01 1.0142586004171598e+01 6.5534119346641369e+00 -2 0 -1
149 20 8 4.0999999999999998e-01 1.3673695231514449e+01 1.0997395837088391e+01 6.0887085594320265e+00 -2 0 -1
17 10 2 -4.6100000000000002e-01 1.1153163880704225e+01 1.1354626651239293e+01 1.0743919548894478e+00 -1 -3 3
23 10 4 3.1900000000000001e-01 1.3215554304354605e+01 9.7595457806516439e+00 1.7522734614991720e+00 -1 -3 3
178 30 7 -8.1999999999999995e-01 1.4679031656896168e+01 8.0283999657707081e+00 5.3467343788090336e+00 -7 4 0
87 15 4 3.1900000000000001e-01 3.5552936305880416e+00 1.2026070876327609e+01 1.3794408460034838e+01 0 1 -2
4 4 1 8.0000000000000004e-01 1.4976621160917631e+00 1.0073970316449619e+01 8.7440946512102684e+00 -1 -1 -3
86 15 3 -1.3800000000000001e-01 3.6467423416099845e+00 1.0983625278816223e+01 1.4667602372249561e+01 0 1 -2
140 18 2 -4.6100000000000002e-01 1.2934509867608714e+00 9.4089077760409108e+00 1.0648338715490237e+01 -1 1 0
88 15 5 9.1100000000000003e-01 3.8322782204393078e+00 1.3546577025006702e+01 1.4680592912368386e+01 0 1 -2
279 63 8 4.0999999999999998e-01 4.7641068730083642e+00 1.5361240560573581e+01 1.2178859062382536e+01 -6 -1 -7
237 49 8 4.0999999999999998e-01 3.7974184079987827e+00 8.9188892116250145e+00 8.0181264427190868e+00 -5 1 6
235 49 7 -8.1999999999999995e-01 3.5996880920685208e+00 9.8106677880596820e+00 8.4768485985649420e+00 -5 1 6
93 15 3 -1.3800000000000001e-01 2.3098115177525518e+00 1.2090317482326938e+01 1.3264206797698213e+01 0 1 -2
89 15 2 -4.6100000000000002e-01 3.9414351522487956e+00 1.4854071270152991e+01 1.4026751581293331e+01 0 1 -2
264 58 8 4.0999999999999998e-01 5.0761401994434570e+00 1.1746538921325547e+01 9.8807481155209960e+00 -1 -1 -6
139 18 5 9.1100000000000003e-01 9.8116506587283803e-01 8.2241196904561669e+00 1.1442821582344051e+01 -1 1 0
85 15 2 -4.6100000000000002e-01 2.7160866868123459e+00 1.3493836767717696e+01 1.5631309998578939e+01 0 1 -2
90 15 3 -1.3800000000000001e-01 4.4554941528661045e+00 1.1793513761188837e+01 1.2778524456634663e+01 0 1 -2
26 11 3 -1.3800000000000001e-01 3.5727484703000406e-01 1.5743763930788704e+01 1.2694339572679006e+01 2 0 -3
108 16 3 -1.3800000000000001e-01 5.1933410210473907e+00 9.1090345148496432e+00 1.0799153018609520e+01 1 -2 -1
33 11 3 -1.3800000000000001e-01 2.0426328914709813e+00 1.5387592799233126e+01 1.1353977180204611e+01 2 0 -3
1 1 1 8.0000000000000004e-01 7.2769411215806035e-01 1.4363609116908748e+01 7.9052301130933254e+00 -3 3 -2
234 48 8 4.0999999999999998e-01 3.7807671560327329e+00 1.4469519460160717e+01 8.2513912450414786e+00 -7 3 3
278 63 8 4.0999999999999998e-01 5.2356586594182311e+00 1.5029065750138377e+01 1.0585266555803994e+01 -6 -1 -7
236 49 8 4.0999999999999998e-01 4.4291171467154014e+00 1.0446261198653902e+01 8.3357637012701389e+00 -5 1 6
232 48 7 -8.1999999999999995e-01 2.9509809540036849e+00 1.3901180472523162e+01 8.4562187873000294e+00 -7 3 3
233 48 8 4.0999999999999998e-01 3.2160604613357182e+00 1.3129403345751296e+01 9.1108919841776679e+00 -7 3 3
262 58 7 -8.1999999999999995e-01 5.5740331351914101e+00 1.1946298018168543e+01 9.0245463256170222e+00 -1 -1 -6
287 66 8 4.0999999999999998e-01 6.9147589067301745e+00 1.5071812548017300e+01 1.5216054606501439e+01 4 -4 -2
105 16 3 -1.3800000000000001e-01 6.2054220368133954e+00 8.0278190471220192e+00 9.1486145108124948e+00 1 -2 -1
155 22 8 4.0999999999999998e-01 7.4585407394171410e+00 1.4417256442903705e+01 8.8226717558471197e+00 3 2 -3
156 22 8 4.0999999999999998e-01 9.1048086962133929e+00 1.3868223363231140e+01 8.4724658233471573e+00 3 2 -3
277 63 7 -8.1999999999999995e-01 5.4350745615316267e+00 1.5004222798321903e+01 1.1585357039524942e+01 -6 -1 -7
263 58 8 4.0999999999999998e-01 6.4942802974014313e+00 1.2435944812135148e+01 9.1391729112446090e+00 -1 -1 -6
260 57 8 4.0999999999999998e-01 7.5305901911172617e+00 8.3514975635930018e+00 1.5401801944388016e+01 4 4 2
154 22 7 -8.1999999999999995e-01 8.1813157788135431e+00 1.3636769801792161e+01 8.8585727761728421e+00 3 2 -3
165 25 8 4.0999999999999998e-01 9.9249269203094634e+00 1.5156142678208200e+01 1.1739171723744940e+01 -3 -1 1
91 15 6 -5.8799999999999997e-01 5.3109166146369997e+00 1.3482375712742263e+01 1.5556547157666857e+01 0 1 -2
239 50 8 4.0999999999999998e-01 7.3542455654775312e+00 1.4704704792971208e+01 1.1696466328031764e+01 7 4 6
147 19 8 4.0999999999999998e-01 7.1545751527879053e+00 1.0913514942588119e+01 1.3948941072936732e+01 -6 6 4
107 16 2 -4.6100000000000002e-01 8.8171470056851433e+00 9.6458049738653759e+00 9.1907682298841795e+00 1 -2 -1
240 50 8 4.0999999999999998e-01 8.3122077218875177e+00 1.3688245519017228e+01 1.0808473376700164e+01 7 4 6
188 33 8 4.0999999999999998e-01 1.0496414880875079e+01 1.1913773100191671e+01 1.4868421495352077e+01 3 4 -2
286 66 7 -8.1999999999999995e-01 7.7999405336290142e+00 1.5177506465477169e+01 1.4680630624144023e+01 4 -4 -2
238 50 7 -8.1999999999999995e-01 8.2627179504947623e+00 1.4220248039131084e+01 1.1698253863383547e+01 7 4 6
109 16 5 9.1100000000000003e-01 9.4679690727924672e+00 9.9267374739002197e+00 1.0472969806980421e+01 1 -2 -1
2 2 1 8.0000000000000004e-01 8.3135243914421313e+00 1.3522963673840035e+01 1.3626774090003005e+01 6 -4 -2
110 16 2 -4.6100000000000002e-01 9.5618328188785142e+00 1.1337101290412701e+01 1.0925738189761855e+01 1 -2 -1