variable        infile index data.mol
variable        mytemp index 373

# set up simulation
#read_restart    ${NAME}.restart.*

# the following information is saved to restart files
units           real
atom_style      full
boundary        p p p
pair_style      lj/cut/coul/long 7
kspace_style    pppm 0.0001
pair_modify     tail yes
pair_modify     mix arithmetic
special_bonds   amber

bond_style      harmonic
angle_style     harmonic
dihedral_style  charmm
#improper_style  cvff

read_data       ${infile}
read_data       data.mol
  orthogonal box = (0 0 0) to (15.7932 15.7932 15.7932)
  1 by 2 by 2 MPI processor grid
  reading atoms ...
  294 atoms
  reading velocities ...
  294 velocities
  scanning bonds ...
  4 = max bonds/atom
  scanning angles ...
  6 = max angles/atom
  scanning dihedrals ...
  12 = max dihedrals/atom
  reading bonds ...
  226 bonds
  reading angles ...
  275 angles
  reading dihedrals ...
  270 dihedrals
  4 = max # of 1-2 neighbors
  6 = max # of 1-3 neighbors
  12 = max # of 1-4 neighbors
  14 = max # of special neighbors
  special bonds CPU = 0.000477281 secs
  read_data CPU = 0.0120475 secs

#replicate       3 4 4

neighbor        2.0 bin
neigh_modify    delay 0 every 1 check yes page 1000000 one 20000
timestep        1.0
#velocity        all create ${mytemp} 314159265 mom yes rot yes dist gaussian

## end information that is saved to restart files

## create velocity profile
#minimize       1e-4 1e-6 10000 10000
#velocity        all create  ${mytemp} 314159265 units box
velocity        all zero linear units box
dump            DUMP all custom 1000 ${NAME}.lammpstrj id type x y z mol
dump            DUMP all custom 1000 mol.lammpstrj id type x y z mol
thermo_style    custom step vol temp press ke pe etotal enthalpy evdwl ecoul epair ebond eangle edihed eimp emol elong etail lx ly lz xy xz yz pxy pxz pyz pxx pyy pzz
thermo          1000
#
## thermostat and integrator

#fix             NPT all npt temp ${mytemp} ${mytemp} 100.0 iso 1.0 1.0 100.0
fix             NVT all nvt temp ${mytemp} ${mytemp} 100.0
fix             NVT all nvt temp 373 ${mytemp} 100.0
fix             NVT all nvt temp 373 373 100.0

restart         50000 restart.${NAME}.1 restart.${NAME}.2
restart         50000 restart.mol.1 restart.${NAME}.2
restart         50000 restart.mol.1 restart.mol.2
run             10000000
PPPM initialization ...
  using 12-bit tables for long-range coulomb (src/kspace.cpp:332)
  G vector (1/distance) = 0.3803
  grid = 12 12 12
  stencil order = 5
  estimated absolute RMS force accuracy = 0.0233741
  estimated relative force accuracy = 7.03904e-05
  using double precision KISS FFT
  3d grid and FFT values/proc = 3211 432
Neighbor list info ...
  update every 1 steps, delay 0 steps, check yes
  max neighbors/atom: 20000, page size: 1000000
  master list distance cutoff = 9
  ghost atom cutoff = 9
  binsize = 4.5, bins = 4 4 4
  1 neighbor lists, perpetual/occasional/extra = 1 0 0
  (1) pair lj/cut/coul/long, perpetual
      attributes: half, newton on
      pair build: half/bin/newton
      stencil: half/bin/3d/newton
      bin: standard
Per MPI rank memory allocation (min/avg/max) = 17.93 | 17.93 | 17.93 Mbytes
Step Volume Temp Press KinEng PotEng TotEng Enthalpy E_vdwl E_coul E_pair E_bond E_angle E_dihed E_impro E_mol E_long E_tail Lx Ly Lz Xy Xz Yz Pxy Pxz Pyz Pxx Pyy Pzz 
       0    3939.2215    370.56718   -961.50344    323.64498    -629.8354   -306.19042   -361.42832   -14.243038     4771.767   -1233.6913     88.25109    116.60655    398.99824            0    603.85588   -5991.2153   -31.145075      15.7932      15.7932      15.7932            0            0            0    3631.0274     5519.592     -1961.84   -1352.0018    150.65515   -1683.1637 
    1000    3939.2215    377.98924    480.64138    330.12724   -603.42138   -273.29414   -245.68153    11.265761    4740.9923   -1244.4503    96.485719     144.3166    400.22659            0     641.0289   -5996.7084   -31.145075      15.7932      15.7932      15.7932            0            0            0   -415.98675    818.61104    387.93983   -717.91748    342.41443    1817.4272 
    2000    3939.2215    346.95493    3275.2807    303.02257   -603.08967    -300.0671   -111.90384    41.920694    4700.0243   -1256.0624    112.21623    133.10343    407.65308            0    652.97274   -5998.0074   -31.145075      15.7932      15.7932      15.7932            0            0            0   -3607.9602    2816.2619    489.65296    346.41447    9951.7795   -472.35173 
    3000    3939.2215    378.16446    2395.4796    330.28027   -603.42264   -273.14236   -135.52324     11.33791    4753.3025   -1229.1291      110.944    115.04604    399.71638            0    625.70642   -5993.7695   -31.145075      15.7932      15.7932      15.7932            0            0            0   -4497.9287    573.27452   -4540.7961    1245.7254    776.70673    5164.0068 
    4000    3939.2215    365.03929      4931.17    318.81705   -610.82877   -292.01172   -8.7184424   0.63248036    4772.8128   -1225.2689    88.974607    121.29241    404.17311            0    614.44012   -5998.7142   -31.145075      15.7932      15.7932      15.7932            0            0            0   -4266.8668   -5654.2888    1175.5515    3990.1848    6886.8815    3916.4438 
    5000    3939.2215     380.4516   -759.68634    332.27781   -617.57821    -285.3004     -328.944   -23.531447    4787.7452   -1231.2304     91.10014    120.07773     402.4743            0    613.65217   -5995.4441   -31.145075      15.7932      15.7932      15.7932            0            0            0    1595.7312   -354.58705   -3287.0714   -4427.4795   -573.52249     2721.943 
    6000    3939.2215    395.20724    -478.5475    345.16505   -546.06731   -200.90226   -228.39458      19.1691    4746.2114   -1233.2953    119.12142    159.99587    408.11069            0    687.22799   -5998.6758   -31.145075      15.7932      15.7932      15.7932            0            0            0   -4562.4543   -3326.3363   -538.91292   -754.43728   -4183.0163    3501.8111 
    7000    3939.2215    342.83205   -2812.0409    299.42174   -610.65472   -311.23298   -472.78334    6.5771356    4718.5486   -1265.9145    110.57523    133.37016    411.31443            0    655.25981   -5991.0403   -31.145075      15.7932      15.7932      15.7932            0            0            0    6932.4109    1172.2142   -3014.3449   -812.20228   -6238.0218   -1385.8987 
    8000    3939.2215    361.50402    6074.6479    315.72942   -595.84853   -280.11911    68.866407     34.38938     4745.338   -1218.1304    94.516309    127.22375    400.54179            0    622.28185   -5997.8577   -31.145075      15.7932      15.7932      15.7932            0            0            0    640.06902   -5605.6455    2573.4928    2737.6009    12579.311    2907.0314 
    9000    3939.2215    396.46033   -1178.3534    346.25947   -561.71186   -215.45239   -283.14822    15.979997    4748.7934   -1227.6456     117.4681    152.80687    395.65872            0    665.93369    -5992.419   -31.145075      15.7932      15.7932      15.7932            0            0            0   -2322.9055   -2222.3379    1780.7716   -910.02223    114.89137   -2739.9294 
   10000    3939.2215    374.90256     243.1418     327.4314   -602.72837   -275.29696   -261.32858  -0.11994783    4782.8063   -1214.1146    89.874338    124.03529    397.47656            0    611.38619   -5996.8009   -31.145075      15.7932      15.7932      15.7932            0            0            0   -415.56962   -1020.4623     881.9725    1104.7954    2211.5338   -2586.9038 
   11000    3939.2215     392.4822   -2440.8154    342.78506   -633.61327    -290.8282   -431.05184    24.687633    4702.4006    -1269.338    97.858418    145.94439    391.92191            0    635.72472   -5996.4262   -31.145075      15.7932      15.7932      15.7932            0            0            0   -3726.9885   -598.22005    3267.3674   -5399.9463    1808.3522   -3730.8519 
   12000    3939.2215    376.91843   -2634.8085    329.19202   -619.52635   -290.33434   -441.70278     2.230938    4725.3283    -1264.939    105.15681     135.0937     405.1621            0    645.41261   -5992.4982   -31.145075      15.7932      15.7932      15.7932            0            0            0   -865.49134    2986.9108    749.43262   -2210.2694   -4815.2858   -878.87038 
   13000    3939.2215    351.06464   -4944.8974    306.61191   -634.62507   -328.01316   -612.09507   -3.8710919    4722.1875   -1277.8882    95.157559     149.0241     399.0815            0    643.26316   -5996.2047   -31.145075      15.7932      15.7932      15.7932            0            0            0    1052.6768   -497.96893   -397.74333   -771.23303   -7643.6323    -6419.827 
   14000    3939.2215    378.88939    138.06456    330.91341   -629.51376   -298.60035   -290.66861   -7.4755169    4745.3585   -1251.6255    90.719729    125.92749     405.4645            0    622.11172   -5989.5085   -31.145075      15.7932      15.7932      15.7932            0            0            0    722.74572    1702.9727    952.18065    3994.7868    -1031.859   -2548.7342 
   15000    3939.2215    384.55058     259.8279    335.85776   -592.09697   -256.23921   -241.31223    13.204719    4738.8215   -1239.5899    102.44068    139.56473     405.4875            0     647.4929   -5991.6161   -31.145075      15.7932      15.7932      15.7932            0            0            0   -4051.7512    3107.6784    2422.6571   -2574.7019    2375.6604    978.52514 
   16000    3939.2215    355.15171   -5520.6738    310.18146   -580.27305   -270.09159   -587.25157    6.2270141    4753.6433   -1231.4896    96.586534    153.17387    401.45611            0    651.21652   -5991.3599   -31.145075      15.7932      15.7932      15.7932            0            0            0   -149.96763    1099.7405    3801.2073    673.90138   -7435.1743   -9800.7486 
   17000    3939.2215    381.52288   -1196.9123    333.21344   -627.29374   -294.08031   -362.84233   -4.4714086    4725.7002   -1270.3221    92.191698    148.90998    401.92671            0    643.02839    -5991.551   -31.145075      15.7932      15.7932      15.7932            0            0            0   -399.10967    4121.1206    -1521.005   -5633.3541    5385.6054   -3342.9883 
   18000    3939.2215    393.41815    3996.7914     343.6025   -623.92469   -280.32219   -50.708504   -9.2667361     4760.888   -1245.3864    83.586064    138.12951    399.74611            0    621.46168   -5997.0076   -31.145075      15.7932      15.7932      15.7932            0            0            0   -3826.3948   -4574.7725     1621.077    6727.5674     1118.573    4144.2336 
   19000    3939.2215    379.48653   -4255.3135    331.43494    -614.4753   -283.04036   -527.50602   -26.291654    4771.6791   -1253.0441    84.081712    154.24548    400.24165            0    638.56884   -5998.4316   -31.145075      15.7932      15.7932      15.7932            0            0            0   -2287.0962    1275.7713   -2458.9474   -7461.6595   -696.52934   -4607.7517 
   20000    3939.2215    339.96925    1131.8228    296.92144     -608.529   -311.60756    -246.5849    5.8152346    4732.8688   -1255.2226    109.94666    135.97911     400.7678            0    646.69357   -5993.9066   -31.145075      15.7932      15.7932      15.7932            0            0            0   -340.22419    4447.5533   -1778.1902    6533.8287    -1633.781   -1504.5792 
   21000    3939.2215    403.91554   -2016.3077    352.77068   -575.31132   -222.54064   -338.37652   -26.381484    4788.7934   -1235.0465    109.34297    138.86474    411.52743            0    659.73514   -5997.4584   -31.145075      15.7932      15.7932      15.7932            0            0            0   -5252.6096    1641.0274   -3002.5038   -5949.3847    599.39803   -698.93648 
   22000    3939.2215     357.8899    2900.4658    312.57293   -583.72592   -271.15299   -104.52267    5.8455755    4755.9555     -1232.29    84.824567    156.88122    406.85831            0     648.5641   -5994.0911   -31.145075      15.7932      15.7932      15.7932            0            0            0   -966.17786    1269.0335   -4482.0144     3985.133     2851.554    1864.7105 
   23000    3939.2215    379.85569    449.01615    331.75736   -610.23877   -278.48141   -252.68565    17.143216    4740.4829   -1241.0814    105.41078    124.97403    400.45785            0    630.84266   -5998.7076   -31.145075      15.7932      15.7932      15.7932            0            0            0   -2517.8816    2681.1897   -3550.9358    2225.3185   -5354.9271     4476.657 
   24000    3939.2215    366.27382    1048.0208    319.89525   -569.41608   -249.52083   -189.31255    10.466744    4761.2949    -1214.974    106.28833    142.14881    397.12079            0    645.55793   -5986.7357   -31.145075      15.7932      15.7932      15.7932            0            0            0   -1542.3103    823.88218   -1036.1543   -381.10953    3619.1579   -93.986067 
   25000    3939.2215    363.38991    2357.1958    317.37651   -581.90733   -264.53082   -129.11108    8.3802419    4740.9354   -1240.5168    96.926786    168.10467    393.57804            0     658.6095   -5989.8325   -31.145075      15.7932      15.7932      15.7932            0            0            0   -2488.9297   -604.40745   -2217.1686    7411.5245    4210.8881   -4550.8251 
   26000    3939.2215    372.42106   -2507.1457    325.26412   -611.64647   -286.38235   -430.41663    27.782195    4700.2901   -1264.9349    112.25633    138.51222    402.51987            0    653.28842   -5993.0072   -31.145075      15.7932      15.7932      15.7932            0            0            0   -1608.4305    4557.6676   -1379.3105    404.88324   -11993.095    4066.7749 
   27000    3939.2215    356.85417   -797.44527    311.66835     -622.831   -311.16265   -356.97549    18.544223    4714.9815    -1260.848    94.050627    147.61856     396.3478            0    638.01698   -5994.3737   -31.145075      15.7932      15.7932      15.7932            0            0            0    -560.7697    743.79017   -438.77337   -382.09602   -6958.1706    4947.9308 
   28000    3939.2215    366.38177   -2660.3409    319.98954   -615.30594   -295.31641   -448.15167    9.7821799    4724.7222   -1260.9354    110.61243    135.62334     399.3937            0    645.62947   -5995.4398   -31.145075      15.7932      15.7932      15.7932            0            0            0    1831.1817     310.5383   -1452.0461    623.36013   -3513.1875   -5091.1952 
   29000    3939.2215     400.4999   -1211.2433    349.78754   -631.75836   -281.97083   -351.55615    5.5474074    4735.3156   -1253.4121    100.72157    125.54133    395.39081            0    621.65371   -5994.2751   -31.145075      15.7932      15.7932      15.7932            0            0            0   -1684.6382    3012.4377   -735.85436   -2807.9794   -2783.2818    1957.5313 
   30000    3939.2215    344.19173    2570.7197    300.60926   -587.31449   -286.70524   -139.01866    16.218557    4743.0948   -1239.0492    106.39408    140.38449    404.95617            0    651.73474   -5998.3626   -31.145075      15.7932      15.7932      15.7932            0            0            0   -2511.9089   -3072.2947   -13.331484    2508.2175     9521.424   -4317.4825 
   31000    3939.2215     390.8528   -603.90837    341.36198   -617.57028    -276.2083   -310.90254   -3.6891389    4746.1948    -1253.704    93.624947    144.55886    397.94991            0    636.13372   -5996.2096   -31.145075      15.7932      15.7932      15.7932            0            0            0   -1581.0983    8713.5217   -4251.8829   -5074.7151    4382.3645   -1119.3745 
   32000    3939.2215    353.58063   -705.08344    308.80931   -620.68412   -311.87481   -352.38151      1.01844    4741.1878    -1251.634    102.53319    132.17457    396.24207            0    630.94983   -5993.8402   -31.145075      15.7932      15.7932      15.7932            0            0            0    1606.2263   -1300.3208   -282.86126    -2571.853    1208.5841   -751.98143 
   33000    3939.2215     390.0687   -6834.3351    340.67717    -596.1731   -255.49593   -648.12511   -6.2358626    4734.2341   -1267.1511    124.13784    145.88157     400.9586            0    670.97802   -5995.1494   -31.145075      15.7932      15.7932      15.7932            0            0            0   -1175.4928   -5023.9527   -4865.7572   -8792.2587   -7721.8349   -3988.9117 
   34000    3939.2215    368.40028    3103.2954    321.75246   -585.26819   -263.51573    -85.23294    -6.582174    4772.4752   -1228.4713    111.58331    128.61521     403.0046            0    643.20312   -5994.3643   -31.145075      15.7932      15.7932      15.7932            0            0            0    3581.9288   -1947.1528    3682.4361    4677.7572    4303.4193    328.70987 
   35000    3939.2215    392.61673    1195.5166    342.90256   -598.55659   -255.65404    -186.9722   -4.1958668    4761.7598   -1235.2393    93.458041    145.88206    397.34263            0    636.68273   -5992.8032   -31.145075      15.7932      15.7932      15.7932            0            0            0   -70.854769   -304.65339   -1377.4144    665.00019    3643.4353   -721.88579 
   36000    3939.2215    377.03446   -2245.7059    329.29336   -619.81194   -290.51858   -419.53327    15.142056    4720.5616   -1261.6029      108.255    130.02734     403.5086            0    641.79094   -5997.3066   -31.145075      15.7932      15.7932      15.7932            0            0            0    2952.7289   -3557.5071    986.68022   -8309.4585   -3845.4614    5417.8023 
   37000    3939.2215    391.89462   -4479.5397    342.27188   -598.67909    -256.4072   -513.75454   -5.8789816    4774.1263    -1227.819    103.33202    121.27915    404.52875            0    629.13992   -5996.0663   -31.145075      15.7932      15.7932      15.7932            0            0            0   -3739.7243     378.5535    2789.8134    -3429.921   -3512.7232   -6495.9747 
   38000    3939.2215    383.54048   -1495.4675    334.97557   -629.26728   -294.29171   -380.20558    9.9731158    4727.6254   -1255.0819    93.566061    132.34171    399.90687            0    625.81464   -5992.6804   -31.145075      15.7932      15.7932      15.7932            0            0            0    763.93194    1713.3008    2300.6439    522.25245    -1535.909   -3472.7459 
   39000    3939.2215    377.61383    4078.9195    329.79936   -632.61992   -302.82056   -68.488645     21.03794    4715.9111   -1258.8542    92.333425    129.91082    403.98999            0    626.23423   -5995.8032   -31.145075      15.7932      15.7932      15.7932            0            0            0    3370.8196    1751.3397    3685.9772    8200.0905    1080.7125    2955.9556 
   40000    3939.2215    368.62207    271.92158    321.94617     -578.483   -256.53684   -240.91507    12.078501    4753.5607    -1224.943    98.502894    136.75414    411.20298            0    646.46002   -5990.5822   -31.145075      15.7932      15.7932      15.7932            0            0            0    3137.6587    1616.8172    2498.4609    -3781.934   -2205.6214    6803.3201 
   41000    3939.2215    379.47649    2158.6052    331.42617   -623.67081   -292.24464   -168.23384    5.2247373    4737.2793   -1253.7757    92.185584     136.5238    401.39552            0     630.1049   -5996.2797   -31.145075      15.7932      15.7932      15.7932            0            0            0   -4524.2602    6212.6916    3155.4816    723.33899    3673.9457    2078.5307 
   42000    3939.2215    388.67897   -1783.4674    339.46341   -588.06895   -248.60554   -351.06486   -8.8674105    4757.2679   -1242.9561    110.33289    151.86637    392.68784            0     654.8871   -5991.3565   -31.145075      15.7932      15.7932      15.7932            0            0            0    1335.4238    3306.0067    2646.4453   -756.30644    763.69292   -5357.7886 
   43000    3939.2215    352.07738   -184.23315    307.49641   -597.59145   -290.09504   -300.67914   -1.1177362     4756.253   -1241.4146    101.39997    137.66814    404.75505            0    643.82315   -5996.5499   -31.145075      15.7932      15.7932      15.7932            0            0            0    3926.6805    1520.1954   -1943.3805   -3932.2827    2941.1242      438.459 
   44000    3939.2215    384.39798    2728.0687    335.72449   -582.97877   -247.25429   -90.528093     13.81435    4747.6603   -1226.9621    90.277961    147.38692    406.31841            0    643.98329   -5988.4367   -31.145075      15.7932      15.7932      15.7932            0            0            0   -515.46391    2815.7896   -1939.1852    2008.5232    665.51405    5510.1687 
   45000    3939.2215    369.53476    -2234.001    322.74329   -570.91605   -248.17276   -376.51501    3.1503319    4752.1234   -1237.3127    111.32701     148.1137    406.95593            0    666.39664   -5992.5864   -31.145075      15.7932      15.7932      15.7932            0            0            0    2207.6037    942.91144   -6933.9798   -7476.8626    1648.7434   -873.88386 
   46000    3939.2215    367.77622   -1461.2365    321.20742   -593.51366   -272.30625   -356.25356    3.3915145    4756.4497   -1230.9275    111.33928    124.66334    401.41118            0     637.4138   -5990.7686   -31.145075      15.7932      15.7932      15.7932            0            0            0   -2342.6102    1765.3072   -1493.4029   -1795.4774    643.63491    -3231.867 
   47000    3939.2215    373.84072   -217.10222    326.50402   -582.64214   -256.13813   -268.61054    9.8021895    4756.7686   -1220.8798    94.140024    142.65351     401.4441            0    638.23763   -5987.4506   -31.145075      15.7932      15.7932      15.7932            0            0            0    223.75007    218.37138   -639.74332     3806.468   -684.03297   -3773.7417 
   48000    3939.2215    355.42046   -2599.1316    310.41618   -636.73338    -326.3172   -475.63602   -12.498106    4722.7798   -1276.7218    103.44612    134.34938    402.19288            0    639.98839   -5987.0035   -31.145075      15.7932      15.7932      15.7932            0            0            0    -4699.377   -4076.1225    -500.3377   -6059.8172   -2274.6605    537.08292 
   49000    3939.2215    365.96843   -5739.0747    319.62854   -624.76537   -305.13684   -634.84384    33.087546    4697.9497   -1262.6419    107.58586    128.91933     401.3713            0    637.87648   -5993.6791   -31.145075      15.7932      15.7932      15.7932            0            0            0    3880.9361    1861.3579    3168.5285   -5021.2658   -8425.1034   -3770.8549 
   50000    3939.2215    356.76981     192.3648    311.59467   -575.47397    -263.8793   -252.82804   -20.516701     4797.023   -1217.4388    92.686461    154.14886    395.12947            0    641.96479   -5993.9451   -31.145075      15.7932      15.7932      15.7932            0            0            0   -3059.9525    -3498.881   -1215.5272     1293.348    5734.6154    -6450.869 
   51000    3939.2215    364.09897   -4721.6016    317.99579   -650.83128   -332.83549   -604.08916   -8.8466242    4720.7371   -1284.0166    95.528251     137.8726    399.78445            0    633.18531    -5995.907   -31.145075      15.7932      15.7932      15.7932            0            0            0      933.499   -319.48802    77.131975   -7917.7155   -1207.1146   -5039.9746 
   52000    3939.2215    403.39675    2365.4702    352.31758   -602.24027   -249.92269   -114.02759   -25.739504    4801.8531   -1219.4587    90.680966    123.68138    402.85611            0    617.21846   -5995.5724   -31.145075      15.7932      15.7932      15.7932            0            0            0    -7751.713   -2640.7515    1941.5495    8241.8522    602.56614   -1748.0077 
   53000    3939.2215    363.73524   -2695.4815    317.67812   -589.62688   -271.94877   -426.80285   -15.274639    4782.2466   -1227.5261    105.29675    142.12379    390.47871            0    637.89925   -5994.4981   -31.145075      15.7932      15.7932      15.7932            0            0            0     317.6053    403.91231    2217.2876   -3275.1819   -4577.8271   -233.43557 
   54000    3939.2215    352.87295    747.95968    308.19124   -610.75534    -302.5641   -259.59418    1.5102819     4769.818   -1225.4142    96.531082    119.82808    398.29972            0    614.65888   -5996.7425   -31.145075      15.7932      15.7932      15.7932            0            0            0   -106.87147   -2868.3292   -4657.5002    1581.1504    2399.6311   -1736.9025 
   55000    3939.2215    371.94719     2833.834    324.85025   -601.98436   -277.13411   -114.33175    5.4820227    4743.9824   -1245.2978    92.204827     146.0472    405.06145            0    643.31348   -5994.7622   -31.145075      15.7932      15.7932      15.7932            0            0            0    374.34619   -818.78157   -1228.8164    2906.1038    6461.4805    -866.0823 
   56000    3939.2215    371.98766   -5081.1547    324.88559   -607.98617   -283.10058    -575.0104    6.4775151    4716.3402   -1268.0517    113.14245    157.42367    389.49944            0    660.06556   -5990.8694   -31.145075      15.7932      15.7932      15.7932            0            0            0   -2418.9667   -1067.7655   -2951.2204   -6487.5849   -6341.1106   -2414.7685 
   57000    3939.2215    388.23883    5073.1921      339.079   -621.76028   -282.68128    8.7710959    7.0453002    4759.6864   -1226.9592    86.584765    121.06759    397.54654            0    605.19889   -5993.6909   -31.145075      15.7932      15.7932      15.7932            0            0            0   -4244.2641   -153.99479    597.64273    5808.8922    10126.349   -715.66458 
   58000    3939.2215    381.74646   -3934.6573    333.40871   -602.47195   -269.06324   -495.10736   -27.962075    4777.1111   -1245.8901    102.16464    136.44419    404.80934            0    643.41817   -5995.0392   -31.145075      15.7932      15.7932      15.7932            0            0            0   -2823.4121     4512.242    2548.0065    1028.9586   -6467.8397   -6365.0909 
   59000    3939.2215     375.8363    6786.1454    328.24691   -584.75351    -256.5066    133.35409   -1.7364428    4770.3679   -1227.2926    93.304215    142.49881    406.73604            0    642.53907   -5995.9241   -31.145075      15.7932      15.7932      15.7932            0            0            0   -2848.4858    3778.7297   -1009.8178    9808.6711    3942.5918    6607.1732 
   60000    3939.2215    367.42016    384.87431    320.89644   -613.87305   -292.97661   -270.86577    9.3468346     4740.238   -1238.9775    102.80133    122.17847     400.1247            0     625.1045   -5988.5624   -31.145075      15.7932      15.7932      15.7932            0            0            0   -355.85621   -3920.9052     1184.649    1127.1192    2197.5892   -2170.0855 
   61000    3939.2215    384.65359   -3426.2078    335.94773   -627.84924    -291.9015   -488.73545   -8.4984825    4728.7538   -1277.3667    96.931253    154.22426    398.36192            0    649.51743    -5997.622   -31.145075      15.7932      15.7932      15.7932            0            0            0   -2352.4968   -1477.6016    4268.5873    -4286.606   -2670.0624    -3321.955 
   62000    3939.2215    391.80298    4265.2666    342.19185   -637.22812   -295.03627   -49.998812   -5.9621758    4749.6981   -1250.1848    91.501297    117.21725    404.23816            0     612.9567   -5993.9208   -31.145075      15.7932      15.7932      15.7932            0            0            0   -723.94349   -1988.8328    773.36446    2597.9329    419.22727    9778.6397 
   63000    3939.2215    368.11248   -5960.6305     321.5011   -600.05013   -278.54902    -620.9843   -9.4735928    4750.0532   -1245.6422    112.03132     136.3954     397.1653            0    645.59203   -5986.2218   -31.145075      15.7932      15.7932      15.7932            0            0            0   -3785.5031    3849.5452    2443.8107   -7993.0867   -6320.7292   -3568.0755 
   64000    3939.2215    341.90688    2362.3874    298.61372   -636.18194   -337.56821   -201.85023    12.435051    4714.1424   -1265.3501    89.718606    144.58295    394.86661            0    629.16816   -5991.9276   -31.145075      15.7932      15.7932      15.7932            0            0            0   -2564.9776    -510.3253   -3595.3541    201.56297    2523.5164    4362.0828 
   65000    3939.2215    364.71741    3943.6968    318.53593    -580.6433   -262.10738   -35.543948    10.513944     4747.196   -1230.7791    105.29286    150.45477    394.38819            0    650.13582    -5988.489   -31.145075      15.7932      15.7932      15.7932            0            0            0   -2971.1635   -1373.7194    2274.9341    3949.2712    1673.7435    6208.0757 
   66000    3939.2215    365.50076   -1669.9414    319.22008   -607.86895   -288.64887   -384.58618   -2.7218925    4732.8622   -1261.8893    88.863746    161.63517    403.52143            0    654.02035   -5992.0296   -31.145075      15.7932      15.7932      15.7932            0            0            0    5378.6668    1996.8727    2381.0852   -7323.7915    -1368.782    3682.7494 
   67000    3939.2215    398.55493    5075.6832    348.08885   -570.20676   -222.11791    69.477584    29.756995    4756.2708   -1206.2453    92.059111    139.50057    404.47884            0    636.03852   -5992.2731   -31.145075      15.7932      15.7932      15.7932            0            0            0    1624.4936    306.19683    2228.6413     10234.01   -1852.5016    6845.5411 
   68000    3939.2215    359.25862   -365.21007    313.76834   -583.93781   -270.16947   -291.15061   -24.480199    4773.7928   -1243.1744    94.287748    161.63737    403.31145            0    659.23657   -5992.4869   -31.145075      15.7932      15.7932      15.7932            0            0            0   -3362.8921   -3194.7101    5551.2666   -5550.6961    2229.4277    2225.6382 
   69000    3939.2215    357.77115   -3191.3611    312.46922   -623.66325   -311.19403   -494.53615   -12.948999    4728.9333   -1276.5848    103.74021    144.88471    404.29665            0    652.92157   -5992.5691   -31.145075      15.7932      15.7932      15.7932            0            0            0   -1151.0787   -1950.1753   -4906.8923    774.96497   -12085.253    1736.2045 
   70000    3939.2215    378.53579    1019.4396    330.60458   -595.82746   -265.22287   -206.65657    12.910039     4725.117   -1254.7147    96.881231    159.31674     402.6893            0    658.88726   -5992.7417   -31.145075      15.7932      15.7932      15.7932            0            0            0    1578.0838    3347.9629    2032.7046    3457.0759   -2689.9396    2291.1826 
   71000    3939.2215    398.99674    1137.3727    348.47471   -619.03978   -270.56507   -205.22357    37.359583    4713.2585   -1241.5234    99.155449    124.43433    398.89387            0    622.48365   -5992.1415   -31.145075      15.7932      15.7932      15.7932            0            0            0    2940.8201     2325.521    1955.3349   -2833.0822   -832.43168    7077.6319 
   72000    3939.2215    350.66707   -4000.7885    306.26467   -609.45516   -303.19049   -533.03381   -12.475733    4745.1962   -1262.0808    98.462085    155.70056    398.46302            0    652.62567   -5994.8013   -31.145075      15.7932      15.7932      15.7932            0            0            0   -752.11572   -3872.2658   -2740.0973   -7957.2527    6868.1559   -10913.269 
   73000    3939.2215    382.93906   -5386.0638     334.4503   -601.23041   -266.78011   -576.20681    5.4544399    4729.2733   -1257.6761    105.49062    145.50729    405.44774            0    656.44565   -5992.4038   -31.145075      15.7932      15.7932      15.7932            0            0            0    4714.6677    898.82568     531.3024    2965.3856   -7467.2012   -11656.376 
   74000    3939.2215    373.61811    2508.3304    326.30959    -620.5003   -294.19071   -150.08837    6.1025692    4752.8053   -1237.2017    88.018718    126.01172    402.67094            0    616.70138   -5996.1095   -31.145075      15.7932      15.7932      15.7932            0            0            0   -4676.7635   -910.61666    2860.7832    2349.4994    4242.0307    933.46105 
   75000    3939.2215    394.42633    -1021.576    344.48302   -609.83901   -265.35599   -324.04502   -3.8868971    4737.0287   -1257.0364    91.476254    143.63037    412.09081            0    647.19743   -5990.1782   -31.145075      15.7932      15.7932      15.7932            0            0            0    44.201364    -1444.531    4958.9592    1432.6786    -1315.924   -3181.4825 
   76000    3939.2215    370.23584    2223.9847     323.3556   -617.36122   -294.00562    -166.2388    17.793097    4714.8835   -1265.4696      86.4543    155.48912      406.165            0    648.10843   -5998.1462   -31.145075      15.7932      15.7932      15.7932            0            0            0    -3438.769   -441.84055   -3991.9561   -2192.8217     7526.675    1338.1007 
   77000    3939.2215    355.52477    3709.4676    310.50728   -616.30632   -305.79904   -92.691964   -2.0016462    4748.5562   -1248.3775     96.92055    139.25839    395.89227            0    632.07121   -5994.9321   -31.145075      15.7932      15.7932      15.7932            0            0            0     1830.264    -577.3593    269.29383    10428.155    3762.5814   -3062.3338 
   78000    3939.2215    361.25345   -6721.5147    315.51058   -617.51466   -302.00409   -688.15178    4.1176937     4744.684   -1247.8854    97.519591    136.45241    396.39875            0    630.37075   -5996.6871   -31.145075      15.7932      15.7932      15.7932            0            0            0    62.122329    1712.5456   -2342.4701   -12850.256   -7654.5649    340.27706 
   79000    3939.2215    360.53808    1014.5503    314.88579   -584.76927   -269.88348   -211.59807    0.2196162    4742.6511   -1250.9721    94.877253    168.35426    402.97127            0    666.20279   -5993.8427   -31.145075      15.7932      15.7932      15.7932            0            0            0   -1379.0054    3944.8385    366.80733   -183.38523    4129.8074   -902.77124 
   80000    3939.2215    321.57294   -3024.2261    280.85452   -615.21229   -334.35777   -508.09806   -6.1692863    4746.3483   -1250.9798    101.11182    128.67675    405.97895            0    635.76752   -5991.1588   -31.145075      15.7932      15.7932      15.7932            0            0            0  -0.11464351    2114.0216     654.0193   -2176.6204   -5390.9922   -1505.0656 
   81000    3939.2215    378.31198    4279.2386    330.40911   -581.33947   -250.93036   -5.0902215     18.15502    4773.5387   -1202.5844    93.527188    131.48788    396.22984            0    621.24491   -5994.2781   -31.145075      15.7932      15.7932      15.7932            0            0            0   -355.77352    2064.7507    307.80665    2619.1342    3041.3455     7177.236 
   82000    3939.2215    380.60971   -1395.5639    332.41589   -626.35737   -293.94148   -374.11594   -10.474555    4758.9942    -1243.362    86.292796    134.15936    396.55243            0    617.00459   -5991.8816   -31.145075      15.7932      15.7932      15.7932            0            0            0    1955.3736    705.92314    1860.0059   -3438.0761    826.11905   -1574.7347 
   83000    3939.2215    354.93972      4102.23    309.99631   -626.60989   -316.61358   -80.942496    19.845211     4741.013   -1234.2228    90.750347    120.29342    396.56912            0    607.61289    -5995.081   -31.145075      15.7932      15.7932      15.7932            0            0            0    4085.4059   -1445.7804    1009.3634    2025.7015    2849.5439    7431.4445 
   84000    3939.2215    371.84776   -337.25087    324.76341   -623.86238   -299.09897   -318.47387    29.946024    4720.9895   -1240.0726    90.874456    124.77118    400.56459            0    616.21022   -5991.0081   -31.145075      15.7932      15.7932      15.7932            0            0            0    2883.1894   -1386.2913    40.285982    980.78196   -2415.3649    422.83031 
   85000    3939.2215    364.95952   -1.3951178    318.74737   -577.52741   -258.78003   -258.86018    21.609208    4739.4399   -1230.9522    102.85011     141.4611    409.11356            0    653.42477   -5992.0013   -31.145075      15.7932      15.7932      15.7932            0            0            0    1084.7304    6908.4065   -2543.2843    2801.4271    3013.4427   -5819.0551 
   86000    3939.2215     365.8982   -1136.0648     319.5672   -648.09373   -328.52653    -393.7929     12.39631     4722.025   -1260.9027    99.384596     115.4622    397.96214            0    612.80894    -5995.324   -31.145075      15.7932      15.7932      15.7932            0            0            0   -2242.1328   -1613.7263    408.79565   -6830.2685    1010.1694    2411.9046 
   87000    3939.2215    347.77454    653.59296    303.73841   -597.40652   -293.66811   -256.11952   -14.328564    4765.8524    -1237.267    86.043533     157.6647    396.15221            0    639.86045   -5988.7908   -31.145075      15.7932      15.7932      15.7932            0            0            0   -5090.3734   -4430.6915    2741.1678    664.29781   -4115.0576    5411.5387 
   88000    3939.2215    364.82666   -3415.4407    318.63134   -618.28729   -299.65595   -495.87133  -0.80495717    4743.3628   -1247.8729    104.02285    126.24953    399.31322            0     629.5856   -5990.4307   -31.145075      15.7932      15.7932      15.7932            0            0            0    1133.0837   -3852.5139   -5573.6625   -7716.7432    2305.0308   -4834.6097 
   89000    3939.2215    380.01434    3828.7203    331.89591   -609.93095   -278.03504   -58.076952    12.409996    4746.9026   -1238.1729    95.378042    129.65057    403.21337            0    628.24198   -5997.4855   -31.145075      15.7932      15.7932      15.7932            0            0            0    2078.1195    2810.9284    6380.1086    4214.9766    2856.0693     4415.115 
   90000    3939.2215    354.41295    2306.9018    309.53624   -596.17627   -286.64003   -154.10966    45.737756      4716.85   -1236.8306    96.814356    143.76031    400.07968            0    640.65435   -5999.4184   -31.145075      15.7932      15.7932      15.7932            0            0            0   -1579.4366    945.22052    2704.0103    4677.3671    1064.3925    1178.9457 
   91000    3939.2215    375.27554    7865.2778    327.75716    -607.2845   -279.52735    172.32897    18.685289    4722.9773    -1252.909    97.346278    141.73645    406.54179            0    645.62452   -5994.5716   -31.145075      15.7932      15.7932      15.7932            0            0            0   -1880.0152   -1454.5102    3355.8279    5692.5741    13194.091    4709.1686 
   92000    3939.2215    331.16254    3392.7134    289.22986     -619.053   -329.82314   -134.91343    16.928019    4720.2956   -1255.3603    99.142731    130.10254    407.06206            0    636.30733    -5992.584   -31.145075      15.7932      15.7932      15.7932            0            0            0    -526.4591    1608.7881    316.04961    7990.6546    3101.9869   -914.50116 
   93000    3939.2215    382.72662   -366.11938    334.26476   -614.21205   -279.94729   -300.98067    29.590987    4699.1531   -1269.8963    109.62335     147.8735    398.18743            0    655.68428   -5998.6405   -31.145075      15.7932      15.7932      15.7932            0            0            0     2306.572    694.69689   -3698.1701    4660.2164   -106.61201   -5651.9626 
   94000    3939.2215    354.57506   -2448.5925    309.67783   -640.95194   -331.27411   -471.94454    9.3251163    4694.8363   -1291.2267    103.41966    143.07412    403.78104            0    650.27481   -5995.3881   -31.145075      15.7932      15.7932      15.7932            0            0            0   -1392.1332   -2677.6123   -798.17114    1812.6658    -6900.156   -2258.2872 
   95000    3939.2215    349.14671    -3095.257    304.93683   -603.82198   -298.88515   -476.70613   -19.785747    4768.3659    -1246.279    112.54535    133.22726    396.68438            0      642.457   -5994.8592   -31.145075      15.7932      15.7932      15.7932            0            0            0   -4762.4638   -2025.7479    -1891.855    1669.5935   -4805.5613   -6149.8034 
   96000    3939.2215    390.07179    5794.0079    340.67987   -620.96234   -280.28248    52.580413   0.44733337    4768.9448    -1226.546    96.564105    109.41733    399.60221            0    605.58365   -5995.9381   -31.145075      15.7932      15.7932      15.7932            0            0            0    54.885861    2472.5776    2413.7675    2688.4153    4686.7002    10006.908 
   97000    3939.2215    349.77601   -5102.8877    305.48644    -621.4317   -315.94526   -609.10363   -18.025188    4762.3489     -1248.94    107.03915    129.37972    391.08943            0     627.5083   -5993.2637   -31.145075      15.7932      15.7932      15.7932            0            0            0    -3216.201    1448.8386   -1230.3965   -2355.1039    -2316.562   -10636.997 
   98000    3939.2215    384.10177     2640.317    335.46578   -643.04946   -307.58368   -155.89878    15.689764    4723.2544   -1260.0374    102.80241    119.39801    394.78749            0    616.98791   -5998.9815   -31.145075      15.7932      15.7932      15.7932            0            0            0    -6439.499   -938.21297    776.74975     4273.783    7382.0635   -3734.8954 
   99000    3939.2215    368.77547   -1982.3019    322.08014   -602.23221   -280.15206   -394.03433   -18.566834    4781.2747   -1232.0364    107.69413    124.93089    397.17913            0    629.80415   -5994.7442   -31.145075      15.7932      15.7932      15.7932            0            0            0    4872.9126    -2859.564    332.20581   -6219.5822    816.54323   -543.86691 
  100000    3939.2215    366.00846    1938.8088     319.6635    -642.4069    -322.7434   -211.35979   -23.841151    4768.4638    -1252.036    83.464292    131.93828    394.22648            0    609.62905   -5996.6586   -31.145075      15.7932      15.7932      15.7932            0            0            0    771.33224   -1545.8569   -87.909306     -1061.68    133.71199    6744.3944 
  101000    3939.2215    341.75914    411.26693    298.48469   -598.20537   -299.72068    -276.0936    6.2632569    4740.6254   -1248.5011    103.82159    146.02121    400.45293            0    650.29574   -5995.3897   -31.145075      15.7932      15.7932      15.7932            0            0            0    501.19749    3039.2343   -2169.7201   -1455.7373     1460.152     1229.386 
  102000    3939.2215    368.09413    3051.9991    321.48508    -642.5853   -321.10022   -145.76438    12.020126    4737.8874   -1247.0349    94.437376    112.69817    397.31409            0    604.44963   -5996.9425   -31.145075      15.7932      15.7932      15.7932            0            0            0    82.114644   -3577.2931   -2064.7743    6687.7063   -875.55075    3343.8417 
  103000    3939.2215    394.02069    2006.6195    344.12875   -623.28666   -279.15791   -163.87861    11.219397    4723.6191   -1260.8909    105.33453    124.14089    408.12879            0    637.60421   -5995.7293   -31.145075      15.7932      15.7932      15.7932            0            0            0     1216.031   -992.17304    1186.2935   -518.20983     6327.774     210.2942 
  104000    3939.2215    395.24167    3610.9869    345.19512    -630.1562   -284.96109   -77.511676    22.868442    4708.5738   -1263.6361    106.20132     126.3885    400.89005            0    633.47987   -5995.0783   -31.145075      15.7932      15.7932      15.7932            0            0            0   -809.90988   -3528.0187   -428.83468   -1924.3541    6283.1984    6474.1164 
  105000    3939.2215    383.82078    1374.9712    335.22037   -632.74877    -297.5284   -218.53698   -2.6893536     4747.801   -1251.1503    93.445049    131.69181    393.26466            0    618.40152   -5996.2619   -31.145075      15.7932      15.7932      15.7932            0            0            0    1858.3985   -1259.3794    2476.5952    5026.1509   -709.32136   -191.91585 
  106000    3939.2215     407.5735    6999.9889    355.96546   -611.44093   -255.47547    146.67043    13.360529    4727.6146    -1253.256    102.89085    138.35422       400.57            0    641.81507   -5994.2312   -31.145075      15.7932      15.7932      15.7932            0            0            0   -2380.6943   -4176.7139    2014.3477    7839.9706    9618.3918    3541.6043 
  107000    3939.2215    381.63631    37.112805    333.31251   -623.13177   -289.81926   -287.68714    42.418145    4689.7685   -1268.2291    102.24782    145.82244    397.02706            0    645.09733   -6000.4158   -31.145075      15.7932      15.7932      15.7932            0            0            0    4076.5762    1823.2427   -2774.0877    1390.5957   -909.72057   -369.53669 
  108000    3939.2215    418.97549   -1364.0005     365.9237     -625.069    -259.1453   -337.50646     19.52987    4692.8053   -1286.1035    108.17762    147.31161    405.54522            0    661.03445   -5998.4387   -31.145075      15.7932      15.7932      15.7932            0            0            0    3366.5005   -952.76086    -6850.137   -2806.3076   -98.791505   -1186.9025 
  109000    3939.2215    374.84086   -1442.3841    327.37752   -601.83364   -274.45613   -357.32038   -23.343021    4791.8122   -1225.0497    104.16897    120.12601    398.92109            0    623.21607   -5993.5189   -31.145075      15.7932      15.7932      15.7932            0            0            0   -201.40902   -2501.9064   -1936.8526   -460.62396   -2320.8807   -1545.6477 
  110000    3939.2215    369.45883   -343.36188    322.67697   -586.64128    -263.9643   -283.69027   -20.243736    4783.2407   -1230.3606    99.773607    141.10688    402.83881            0    643.71929   -5993.3575   -31.145075      15.7932      15.7932      15.7932            0            0            0   -4388.3313   -63.472621   -382.06446   -5158.9164   -850.30385    4979.1346 
  111000    3939.2215    365.82941     2278.181    319.50712   -613.64045   -294.13332   -163.25295    6.3080771    4715.6952   -1270.1718    95.862915    150.65177    410.01671            0    656.53139   -5992.1751   -31.145075      15.7932      15.7932      15.7932            0            0            0   -1131.4573    187.38826   -2473.2325    3900.5663    7168.2911   -4234.3144 
  112000    3939.2215    381.76216    2551.1583    333.42242   -616.18797   -282.76555   -136.20276    5.6299675    4728.0609   -1260.0539    101.42663    141.21151    401.22777            0    643.86591   -5993.7448   -31.145075      15.7932      15.7932      15.7932            0            0            0    3863.9463    2696.3641    -2423.952   -803.92632    3671.0705    4786.3308 
  113000    3939.2215    369.74009    266.20799    322.92262   -594.86648   -271.94386   -256.65034    16.733926    4727.6798   -1250.2912     108.4626    147.32995     399.6322            0    655.42476   -5994.7049   -31.145075      15.7932      15.7932      15.7932            0            0            0    2070.5743    477.34384   -4819.3376    6324.4348   -3442.9753   -2082.8355 
  114000    3939.2215    396.27437     5321.583    346.09706   -614.28861   -268.19155     37.53076    4.7040423    4740.7688   -1248.5236    78.564682    147.19312    408.47721            0    634.23501   -5993.9964   -31.145075      15.7932      15.7932      15.7932            0            0            0   -3118.7925    1216.2831    1129.9928    2442.4036    5192.8093     8329.536 
  115000    3939.2215    369.29247    447.54729    322.53168    -605.5205   -282.98882   -257.27745    3.0325093    4741.1524   -1241.1317    107.53604    124.74534    403.32983            0    635.61121   -5985.3167   -31.145075      15.7932      15.7932      15.7932            0            0            0   -1009.0865   -2065.3419    1080.2143   -2831.1416    3912.3795    261.40403 
  116000    3939.2215     351.1811    53.490471    306.71362   -614.81823   -308.10461   -305.03161   -9.3727596    4747.1587   -1257.8068    97.667492    134.70288    410.61823            0     642.9886   -5995.5928   -31.145075      15.7932      15.7932      15.7932            0            0            0    3482.6565   -1142.4272   -3092.5862   -2796.6978    3449.7553    -492.5861 
  117000    3939.2215    367.34334    2996.5853    320.82935   -598.87561   -278.04626   -105.89392    34.963261    4696.1517   -1259.9714    98.526843    155.50841    407.06054            0     661.0958   -5991.0863   -31.145075      15.7932      15.7932      15.7932            0            0            0   -3631.0726   -62.502714   -4438.2236    4102.3689    6603.3189   -1715.9319 
  118000    3939.2215    380.22322    783.92784    332.07835   -565.84897   -233.77062   -188.73435    2.8751421    4763.4191     -1227.86    102.45744    164.23268    395.32097            0    662.01108   -5994.1543   -31.145075      15.7932      15.7932      15.7932            0            0            0   -1664.0858    2168.6568    1306.6071    4119.5081   -1458.9361   -308.78855 
  119000    3939.2215    366.43465   -1984.0992    320.03572   -633.03798   -313.00226   -426.98777    -12.89611     4749.145   -1261.9339    96.798612    132.19077    399.90659            0    628.89597   -5998.1829   -31.145075      15.7932      15.7932      15.7932            0            0            0    1657.6162    1103.3416    1291.7025   -319.97163    -759.4788   -4872.8471 
  120000    3939.2215    400.54052   -2331.4074    349.82302   -595.57988   -245.75686   -379.69506   -29.321303     4783.662   -1239.4576    104.25342    143.72616    395.89816            0    643.87773   -5993.7983   -31.145075      15.7932      15.7932      15.7932            0            0            0    763.45719   -4150.5296    1825.6152   -5547.6531   -422.03861   -1024.5304 
  121000    3939.2215    384.52412   -4183.8784    335.83465   -587.07446   -251.23981   -491.60155    1.5644765    4749.1234   -1246.4767    115.66467    139.26329    404.47432            0    659.40228   -5997.1646   -31.145075      15.7932      15.7932      15.7932            0            0            0    1367.4518     74.16345   -2324.7651   -6961.1673   -6188.3274    597.85945 
  122000    3939.2215    378.00998     4144.261    330.14535   -616.04065   -285.89531   -47.809561    14.011145    4738.0611   -1241.8693    97.281024    127.20342    401.34416            0     625.8286   -5993.9415   -31.145075      15.7932      15.7932      15.7932            0            0            0    944.68868    1937.7378    2358.4124    5928.4601    8580.9676   -2076.6448 
  123000    3939.2215     395.7817   -4235.3278    345.66677   -627.77807   -282.11129   -525.42878   -18.896277    4758.2255   -1258.1925    108.93736    121.93454    399.54255            0    630.41445   -5997.5217   -31.145075      15.7932      15.7932      15.7932            0            0            0   -1077.2921    913.89231    80.546372   -1943.3637   -5901.5875   -4861.0321 
  124000    3939.2215    397.43949    3399.7971    347.11465   -598.77194    -251.6573   -56.340635    3.4747641    4748.1327   -1242.1135    101.08621    134.66046    407.59488            0    643.34155    -5993.721   -31.145075      15.7932      15.7932      15.7932            0            0            0    3501.7046    223.90073   -1045.1563    1584.9297    9413.7261   -799.26452 
  125000    3939.2215    364.47781    382.72216    318.32666   -612.30148   -293.97482   -271.98762  -0.95282281    4747.1449   -1249.3726     110.0357    123.47734    403.55808            0    637.07112   -5995.5647   -31.145075      15.7932      15.7932      15.7932            0            0            0    825.58098   -4985.9276    -1087.242   -504.21474    2068.7618   -416.38061 
  126000    3939.2215    343.46945    3177.2278    299.97843   -586.31586   -286.33743   -103.80726   -7.8627237    4768.7022   -1232.2272    103.60405    150.45853    391.84876            0    645.91135   -5993.0667   -31.145075      15.7932      15.7932      15.7932            0            0            0    2382.4349    1993.5332     5065.293    3861.0362    5120.6448    550.00228 
  127000    3939.2215    401.44473   -2563.5779    350.61273   -613.92555   -263.31281    -410.5891    3.7244783    4737.9944   -1255.2637    101.05348    129.66284    410.62188            0     641.3382   -5996.9826   -31.145075      15.7932      15.7932      15.7932            0            0            0    1713.5459    2776.0491   -3684.6516   -6167.9131    1656.0436   -3178.8643 
  128000    3939.2215     386.0015    2426.9722    337.12497   -601.95897     -264.834   -125.40565   -8.5745323    4758.0895   -1248.4846    97.838887    140.93356    407.75315            0     646.5256   -5997.9995   -31.145075      15.7932      15.7932      15.7932            0            0            0   -1109.0283    4835.3266    1800.9814     577.1497    3612.0853    3091.6817 
  129000    3939.2215    344.70015    324.53974     301.0533   -619.29542   -318.24212   -299.59747   -10.508234    4745.4792   -1259.0722    84.358174    150.10768    405.31093            0    639.77679   -5994.0432   -31.145075      15.7932      15.7932      15.7932            0            0            0   -6379.1071   -2109.4603    1421.1917    535.23566    5299.5392   -4861.1556 
  130000    3939.2215    389.20175    178.65272    339.91999   -646.34576   -306.42577   -296.16226    4.4339005    4707.2373   -1281.6896    105.61833    133.10979    396.61577            0    635.34389   -5993.3608   -31.145075      15.7932      15.7932      15.7932            0            0            0    2633.8787    1474.5171    1230.4915   -431.59383     -1702.08     2669.632 
  131000    3939.2215    368.08332    4399.6124    321.47563   -649.48589   -328.01026   -75.254704    15.063388    4718.1802   -1265.3412    97.924902    114.01457    403.91583            0     615.8553   -5998.5847   -31.145075      15.7932      15.7932      15.7932            0            0            0    430.97801   -2879.5092    4272.2029    939.70265    6050.4874     6208.647 
  132000    3939.2215    383.09848   -2065.2252    334.58953   -602.99294   -268.40341   -387.04957  -0.84319565    4753.6063   -1243.4631    108.90065    127.11257    404.45691            0    640.47013   -5996.2261   -31.145075      15.7932      15.7932      15.7932            0            0            0   -1576.0278    -6720.786   -3094.9869   -4478.1073   -3361.3308    1643.7625 
  133000    3939.2215    370.42398    838.86888    323.51991   -589.77875   -266.25884   -218.06624   -1.7348924    4760.1851   -1231.9817    92.680783    141.10632    408.41587            0    642.20297   -5990.4319   -31.145075      15.7932      15.7932      15.7932            0            0            0    1492.7746   -1494.2263     1532.521    1177.1287   -1252.1671     2591.645 
  134000    3939.2215    341.80567    -1229.278    298.52533   -624.94431   -326.41898   -397.04039    6.9887516    4720.7733   -1267.6389    101.49669    144.06604    397.13186            0     642.6946    -5995.401   -31.145075      15.7932      15.7932      15.7932            0            0            0    3423.5632    3637.5178    5251.1397   -4516.7954    1795.4398   -966.47846 
  135000    3939.2215    370.68456   -6488.4977     323.7475   -606.37987   -282.63238   -655.39336     5.398171     4744.233   -1245.2645    114.70448    121.79732    402.38283            0    638.88463   -5994.8957   -31.145075      15.7932      15.7932      15.7932            0            0            0    3627.6198    2596.0495    -1773.161   -3581.0021   -5139.0456   -10745.445 
  136000    3939.2215    373.43663     2588.986    326.15109   -617.13383   -290.98274   -142.24677    12.590907    4737.8847   -1240.2659    97.739542    124.25007    401.14244            0    623.13205   -5990.7415   -31.145075      15.7932      15.7932      15.7932            0            0            0   -1036.9585    1247.1455   -701.40122     6767.182   -701.93888    1701.7149 
  137000    3939.2215    389.52878   -719.07722    340.20561   -633.96358   -293.75796    -335.0686   -6.1645671    4717.4934   -1278.9581    104.38556    141.82043    398.78849            0    644.99449   -5990.2869   -31.145075      15.7932      15.7932      15.7932            0            0            0   -4064.2362   -279.62561    1234.3581   -2754.3388    1781.7361   -1184.6289 
  138000    3939.2215    383.47061   -1773.1152    334.91455   -604.10556   -269.19102   -371.05561   -36.245634    4774.7085    -1254.972     101.0067    144.00667    405.85307            0    650.86644   -5993.4349   -31.145075      15.7932      15.7932      15.7932            0            0            0    1269.7748   -4740.0183   -949.68546      2477.88   -3089.4379   -4707.7878 
  139000    3939.2215    382.10907    1198.2712    333.72541   -583.32333   -249.59792   -180.75783   -23.172527    4794.0675   -1221.2204    100.91521     141.4152    395.56662            0    637.89703   -5992.1153   -31.145075      15.7932      15.7932      15.7932            0            0            0     1988.258   -272.24437   -1501.4272   -22.089469   -744.56881    4361.4718 
  140000    3939.2215    355.09334   -3492.9812    310.13048   -598.35103   -288.22055   -488.89059    1.4157183     4753.416   -1238.5639    94.311528    143.70355    402.19779            0    640.21287   -5993.3956   -31.145075      15.7932      15.7932      15.7932            0            0            0    577.07995     6180.269   -3622.8877   -1964.6729   -3658.9217   -4855.3491 
  141000    3939.2215    367.57915   -5461.2845    321.03531   -600.37173   -279.33643   -593.08452   -9.7663754    4731.6351   -1269.4958    123.52464    142.48661    403.11279            0    669.12405   -5991.3645   -31.145075      15.7932      15.7932      15.7932            0            0            0   -1550.6599   -318.01969   -3150.1467   -6009.2409   -4504.6123   -5870.0003 
  142000    3939.2215     371.2835   -3548.6636     324.2706   -612.84297   -288.57237   -492.44134    17.323898     4705.805   -1266.2669    99.090793    158.62522    395.70795            0    653.42397   -5989.3959   -31.145075      15.7932      15.7932      15.7932            0            0            0   -4573.9244    552.56178    311.48382   -6775.4273   -852.14094   -3018.4227 
  143000    3939.2215    368.65542    2036.6637    321.97529   -595.88112   -273.90583   -156.90051   -11.915265    4756.9657   -1250.8436    101.74089    151.03729    402.18432            0    654.96251    -5995.894   -31.145075      15.7932      15.7932      15.7932            0            0            0    977.25202    -693.5953    2323.4922   -218.79596    3970.3553    2358.4318 
  144000    3939.2215    371.07713   -1444.1365    324.09036   -553.31285    -229.2225   -312.18742   -2.1121924    4766.9577   -1226.4517    123.55037    151.44933    398.13917            0    673.13887   -5991.2972   -31.145075      15.7932      15.7932      15.7932            0            0            0   -1517.5467   -1618.7458   -4250.0574      3476.89   -9740.7599    1931.4604 
  145000    3939.2215    335.03536    1406.1759    292.61229   -583.55721   -290.94492   -210.16081   -5.8832134    4766.7266   -1228.6966    99.288023    142.57132    403.28009            0    645.13944   -5989.5401   -31.145075      15.7932      15.7932      15.7932            0            0            0    1907.3658   -1049.6528    -2948.349    332.88911   -1718.7341    5604.3727 
  146000    3939.2215    370.19897    2673.5131     323.3234   -620.27854   -296.95514   -143.36314    19.568862    4702.1937   -1271.9344    115.02764    129.72912    406.89912            0    651.65589    -5993.697   -31.145075      15.7932      15.7932      15.7932            0            0            0    3142.8516   -1176.6249   -3675.4754    2754.1553    4827.7745    438.60944 
  147000    3939.2215    383.00852    -2343.838    334.51096   -615.94605   -281.43509   -416.08742     5.209079    4709.1071   -1279.1314    101.36188    164.29008    397.53335            0    663.18531   -5993.4475   -31.145075      15.7932      15.7932      15.7932            0            0            0    3717.7871   -194.52935    945.88146   0.31204652   -4549.5863   -2482.2396 
  148000    3939.2215    409.86401   -546.81899    357.96594   -632.12645   -274.16052     -305.575   -20.460515    4734.7175   -1277.7437    105.05237    137.66154     402.9033            0    645.61721   -5992.0007   -31.145075      15.7932      15.7932      15.7932            0            0            0    2073.2717   -697.08988   -381.91632   -291.24569    2390.8995   -3740.1108 
  149000    3939.2215     371.7093    2927.5246    324.64248   -608.37537    -283.7329   -115.54805   -10.649393    4743.4629   -1260.1886    100.33393    150.97504     400.5043            0    651.81327   -5993.0021   -31.145075      15.7932      15.7932      15.7932            0            0            0    4439.7892    1865.2687   -1492.2246    3199.5215   -283.87206    5866.9246 
  150000    3939.2215    380.96187    5905.6421    332.72347   -606.35569   -273.63223    65.643995    17.925346    4705.1151   -1272.4826    98.413717    156.40454     411.3086            0    666.12686    -5995.523   -31.145075      15.7932      15.7932      15.7932            0            0            0   -3445.2886   -1365.2664     1572.597    4470.9677    3858.6229    9387.3359 
  151000    3939.2215    366.39258   -1613.1637    319.99898   -620.49048    -300.4915   -393.16696    4.3683237     4724.641   -1268.8648    95.136697    161.36379    391.87387            0    648.37436   -5997.8742   -31.145075      15.7932      15.7932      15.7932            0            0            0    3288.9064   -1454.2448    3369.5677   -418.15484   -3203.2531   -1218.0831 
  152000    3939.2215    344.46134   -6622.8106    300.84473   -599.95335   -299.10862   -679.58582   -24.919143    4770.9482   -1251.7777    114.63643    139.18474    398.00317            0    651.82434   -5997.8068   -31.145075      15.7932      15.7932      15.7932            0            0            0   -4206.9142    6493.7907   -383.87016   -9996.8598   -6021.0385   -3850.5336 
  153000    3939.2215    359.31853   -150.30298    313.82066   -616.82586   -303.00519   -311.64003    -19.72214    4768.3252   -1246.7679    86.647046     146.0458    397.24921            0    629.94206    -5995.371   -31.145075      15.7932      15.7932      15.7932            0            0            0    364.72914   -2033.4152     2575.792   -6378.6276    442.03747    5485.6812 
  154000    3939.2215    343.17652    1907.3387    299.72259   -627.07644   -327.35385   -217.77818    9.1950825    4737.5854   -1246.5002    91.071285    126.09673    402.25575            0    619.42376   -5993.2806   -31.145075      15.7932      15.7932      15.7932            0            0            0    5328.4161   -2577.2401   -525.56559    4279.4405    3714.8511   -2272.2755 
  155000    3939.2215    395.24613   -4627.4865    345.19902   -615.67422    -270.4752   -536.32201    -9.900505    4729.5336   -1275.4406    122.14415    139.14373    398.47851            0    659.76639   -5995.0736   -31.145075      15.7932      15.7932      15.7932            0            0            0    1225.2778    665.67642    3523.8776   -2534.0806   -8694.3537   -2654.0251 
  156000    3939.2215    376.38452    2960.4136    328.72571   -617.65309   -288.92738   -118.85308    5.5063892    4725.3028   -1267.4147    98.700417    152.04557    399.01561            0     649.7616   -5998.2239   -31.145075      15.7932      15.7932      15.7932            0            0            0   -3558.9365   -2525.9749    8758.3089    3804.7489    1044.6522    4031.8397 
  157000    3939.2215     343.5837   -3247.2877    300.07822   -629.76354   -329.68532   -516.24039    1.6323493    4723.4431   -1268.6557    102.16976    128.80279     407.9196            0    638.89215   -5993.7311   -31.145075      15.7932      15.7932      15.7932            0            0            0     344.7223    2332.4214    2481.0917   -4650.2747    -4208.338   -883.25057 
  158000    3939.2215     373.7663   -6186.2756    326.43902   -545.23512    -218.7961   -574.19457   -19.434327     4785.164   -1225.5698    122.42986    160.35961    397.54519            0    680.33465   -5991.2995   -31.145075      15.7932      15.7932      15.7932            0            0            0   -1493.1995    2373.9483    99.989569   -10004.858   -3079.0352   -5474.9337 
  159000    3939.2215     366.4095    5156.7825    320.01375   -606.31289   -286.29913    9.9554711    6.3729876    4715.7388   -1271.0571     109.7683    158.01086    396.96508            0    664.74423   -5993.1689   -31.145075      15.7932      15.7932      15.7932            0            0            0   -2780.7706   -5550.6278    3162.1475    2162.9716    4397.9414    8909.4345 
  160000    3939.2215    366.12774     5293.482    319.76767   -605.59081   -285.82314    18.284782     8.386913    4753.8341   -1230.4144    89.724793    139.46371    395.63508            0    624.82358   -5992.6354   -31.145075      15.7932      15.7932      15.7932            0            0            0    2330.6641    3756.2044    2196.1073    6960.0016    3489.9932    5430.4512 
  161000    3939.2215    358.67978    -2010.727    313.26279   -603.47919    -290.2164   -405.73167   -27.025216    4776.2859   -1246.3565    102.67569    130.93433    409.26726            0    642.87728   -5995.6171   -31.145075      15.7932      15.7932      15.7932            0            0            0     1546.997   -1147.3245   -4673.3314   -3624.1567   -824.25876   -1583.7655 
  162000    3939.2215     380.1441    102.96665    332.00924   -582.69672   -250.68747   -244.77209   -21.734828    4784.5963   -1228.0906    115.62442    130.76074    399.00878            0    645.39393   -5990.9521   -31.145075      15.7932      15.7932      15.7932            0            0            0   -2474.2773    1339.6266    145.71067   -4199.1391    5496.8968   -988.85776 
  163000    3939.2215    387.88481   -2079.2653    338.76981   -619.68983   -280.92003   -400.37279   -13.796957    4720.2949    -1290.714    107.39748    159.55643    404.07027            0    671.02419    -5997.212   -31.145075      15.7932      15.7932      15.7932            0            0            0     208.7092   -4178.8593   -722.19804   -2800.2009    42.387646   -3479.9826 
  164000    3939.2215    373.28375   -3850.3298    326.01757   -609.60906   -283.59149   -504.79103   -3.8792665    4729.1457    -1269.709    109.70661    145.45292     404.9404            0    660.09994   -5994.9755   -31.145075      15.7932      15.7932      15.7932            0            0            0    4388.7692   -1573.0499   -6375.3991   -3444.4566   -727.91959   -7378.6132 
  165000    3939.2215    346.14045    6591.6177    302.31123   -613.80663    -311.4954    67.189782    17.829376    4716.7967   -1259.2853    111.54787    134.76556    399.16523            0    645.47866   -5993.9114   -31.145075      15.7932      15.7932      15.7932            0            0            0   -1539.5651    -4194.353    568.30971    8753.1653    4771.3829    6250.3049 
  166000    3939.2215    398.44554    1028.8842    347.99331   -647.67831     -299.685   -240.57611     12.59222    4718.2693   -1269.1796    91.594404     132.9269    396.97994            0    621.50125    -6000.041   -31.145075      15.7932      15.7932      15.7932            0            0            0   -1175.3655     948.1812   -4039.6011    112.49304    3650.3444   -676.18479 
  167000    3939.2215    351.79765    224.80225     307.2521   -626.24677   -318.99468    -306.0799    46.864416    4666.0307   -1283.9192      106.289    147.25794    404.12547            0    657.67241   -5996.8143   -31.145075      15.7932      15.7932      15.7932            0            0            0   -1267.5737   -586.41017    8470.0834    3184.6961    12.214201   -2522.5036 
  168000    3939.2215    379.69831   -995.29134     331.6199   -638.40993   -306.79004   -363.96903   -3.3345394    4715.3652    -1283.525    102.07328     142.3852    400.65653            0    645.11502   -5995.5557   -31.145075      15.7932      15.7932      15.7932            0            0            0    2595.8749   -2451.1809   -309.42807   -1845.4949   -1191.9073    51.528164 
  169000    3939.2215    377.77088    404.49996    329.93653   -610.38887   -280.45234   -257.21402   -12.038462    4757.0822   -1252.4619    90.002444    142.35705    409.71354            0    642.07304   -5997.5056   -31.145075      15.7932      15.7932      15.7932            0            0            0    2659.2543    974.19461   -983.63158    3634.5644   -1590.2202   -830.84427 
  170000    3939.2215    373.10549    5813.1578    325.86188   -622.50053   -296.63865    37.324389    13.571789    4724.3862   -1254.3166    96.476396    132.76341    402.57625            0    631.81606   -5992.2746   -31.145075      15.7932      15.7932      15.7932            0            0            0    761.31726    -2708.046    4803.5906     13823.38    3496.4903    119.60262 
  171000    3939.2215     358.7806   -730.03281    313.35085   -611.63292   -298.28208    -340.2221   -1.9582628    4727.4722     -1264.15    119.69564    128.26581    404.55565            0    652.51711    -5989.664   -31.145075      15.7932      15.7932      15.7932            0            0            0    2552.9027   -2607.0314   -2231.3405    2825.0317   -6314.9872    1299.8572 
  172000    3939.2215    363.68964    1341.3336    317.63829   -621.11013   -303.47184   -226.41288    11.088796    4738.0528   -1245.9974    103.41389    121.34284     400.1305            0    624.88722    -5995.139   -31.145075      15.7932      15.7932      15.7932            0            0            0    1464.1775     1310.723   -2221.3063   -3059.2307     3185.271    3897.9606 
  173000    3939.2215     356.2771   -1745.6132    311.16435   -607.15662   -295.99227   -396.27689   -12.145337    4751.3973   -1256.9928    93.481495    155.13011    401.22457            0    649.83617   -5996.2448   -31.145075      15.7932      15.7932      15.7932            0            0            0   -128.67613    3776.0877    2592.1649    1268.0561   -4306.3443   -2198.5514 
  174000    3939.2215    400.14682   -1214.5949    349.47917   -572.33954   -222.86037   -292.63825    13.375735    4725.9155   -1256.1932    113.07031     173.9484     396.8349            0    683.85361   -5995.4844   -31.145075      15.7932      15.7932      15.7932            0            0            0    1181.7452    2615.3534    -1445.941    -1865.574    1163.6108   -2941.8215 
  175000    3939.2215    357.37657   -4588.5197     312.1246   -629.60831   -317.48371   -581.09189    26.485597    4691.9385   -1277.0118    105.69003    144.51679    397.19668            0     647.4035   -5995.4359   -31.145075      15.7932      15.7932      15.7932            0            0            0    1540.7676   -3831.4925    1241.8458    -1858.104   -6132.8178   -5774.6373 
  176000    3939.2215    369.36064   -192.63888    322.59122   -586.18698   -263.59576   -274.66277   -6.0020634    4744.3937   -1248.5426    116.00965    139.76075    406.58517            0    662.35558   -5986.9342   -31.145075      15.7932      15.7932      15.7932            0            0            0    112.28211    2631.6324    2026.0031    3436.8637     662.9052   -4677.6856 
  177000    3939.2215    374.54909   -594.07869    327.12269   -625.05648   -297.93379   -332.06331   -10.147828    4755.8011   -1247.4095    109.95453      111.362    401.03654            0    622.35306   -5993.0628   -31.145075      15.7932      15.7932      15.7932            0            0            0    4610.4867    3903.6854    144.54055   -1887.0952   -3508.7935    3613.6526 
  178000    3939.2215    364.39933   -1654.4113    318.25812   -626.62636   -308.36825   -403.41336   -2.3749917     4746.197   -1248.4304    102.34329    120.19473    399.26599            0    621.80401   -5992.2524   -31.145075      15.7932      15.7932      15.7932            0            0            0   -1247.4197    325.74544   -876.44438    4375.0967   -7496.3986   -1841.9321 
  179000    3939.2215    390.59207   -3229.4774    341.13426   -626.82299   -285.68873   -471.22061   -22.776721    4752.6496   -1265.6944    93.315751     145.7726    399.78304            0    638.87139   -5995.5673   -31.145075      15.7932      15.7932      15.7932            0            0            0    552.03021   -2186.1543    36.623836   -3937.1774    -3962.883   -1788.3718 
  180000    3939.2215    377.93707   -2939.4398    330.08167   -597.44242   -267.36075   -436.23011   -14.595243      4758.15   -1253.4121    125.66936    135.74383    394.55652            0    655.96971   -5996.9669   -31.145075      15.7932      15.7932      15.7932            0            0            0   -2228.3292    1040.1807     890.7312    -2122.263   -10567.433    3871.3768 
  181000    3939.2215    365.86969    2963.1472     319.5423   -571.74869    -252.2064   -81.975052  0.001874043    4762.4909   -1237.4195    110.24184    152.68435    402.74463            0    665.67082   -5999.9123   -31.145075      15.7932      15.7932      15.7932            0            0            0   -2738.6359   -3166.6003    1777.4164    7851.4893    4038.5884    -3000.636 
  182000    3939.2215    393.34157   -805.01925    343.53562   -616.54279   -273.00717   -319.25513    27.179834    4703.0886   -1263.6902    112.79928    135.69862    398.64952            0    647.14742   -5993.9586   -31.145075      15.7932      15.7932      15.7932            0            0            0    209.83534    2563.7256   -1790.4411   -1823.4194    -226.3741   -365.26427 
  183000    3939.2215     388.7583    304.62188    339.53269   -608.89384   -269.36115   -251.86078     14.22953    4716.1221    -1262.585    111.77365    136.75867    405.15882            0    653.69113   -5992.9366   -31.145075      15.7932      15.7932      15.7932            0            0            0    4737.0318   -1784.5238    2298.1496   -1682.6907     2981.887   -385.33074 
  184000    3939.2215    373.90016     2367.869    326.55593   -637.99633    -311.4404    -175.4075    38.550224    4664.9597   -1290.8629    112.33355    138.14122    402.39177            0    652.86655   -5994.3728   -31.145075      15.7932      15.7932      15.7932            0            0            0   -4918.1846   -1047.0884    461.43412    3599.6553    3042.5221    461.42961 
  185000    3939.2215    356.10113   -3081.6411    311.01066    -639.3309   -328.32024     -505.359    11.573253    4708.9431   -1275.8898     95.79756    136.19434    404.56698            0    636.55888   -5996.4061   -31.145075      15.7932      15.7932      15.7932            0            0            0   -582.49648    1.5773217    9.9391756    3031.6632     -3325.02   -8951.5666 
  186000    3939.2215    395.46274   -3987.6379     345.3882   -609.47931   -264.09111   -493.17894    16.034206    4691.1097   -1287.0964    124.22017    149.34036    404.05657            0    677.61711   -5994.2403   -31.145075      15.7932      15.7932      15.7932            0            0            0   -889.49701    3217.2604    2073.7868     -5506.69   -2921.1945   -3535.0293 
  187000    3939.2215    399.81831    6705.2318    349.19225   -635.51284   -286.32059    98.891664     33.40652    4691.7432   -1270.5897    97.075136    140.02052    397.98117            0    635.07682   -5995.7394   -31.145075      15.7932      15.7932      15.7932            0            0            0   -1788.1041   -4788.9904   -1838.9132    5892.2522    4536.3597    9687.0835 
  188000    3939.2215    362.89349    838.34603    316.94295   -662.47317   -345.53022   -297.36766     -18.0833    4734.3914   -1283.0336    91.510923    126.89628    402.15327            0    620.56047   -5999.3418   -31.145075      15.7932      15.7932      15.7932            0            0            0    1188.4624   -3000.1828    692.12864    4087.5516   -1496.8555   -75.657999 
  189000    3939.2215    379.29082   -303.94184    331.26401   -606.99936   -275.73535   -293.19666   -6.3765957    4713.9623   -1282.4863    118.68384    150.10503    406.69809            0    675.48697    -5990.072   -31.145075      15.7932      15.7932      15.7932            0            0            0   -1678.8149    744.41181   -648.91425    2333.9994   -5951.5048    2705.6799 
  190000    3939.2215    400.68793    1626.3106    349.95176   -630.53885    -280.5871   -187.15636     4.511712    4737.3719   -1260.1261    101.33779    128.71105    399.53841            0    629.58725   -6002.0097   -31.145075      15.7932      15.7932      15.7932            0            0            0   -1412.6164   -2647.8527   -3274.0919    838.53124    6058.5243   -2018.1238 
  191000    3939.2215    367.42379    3105.0977    320.89961   -590.41179   -269.51218   -91.125851    5.0389331    4755.9591   -1235.9298    98.780148    141.36569     405.3722            0    645.51803   -5996.9279   -31.145075      15.7932      15.7932      15.7932            0            0            0   -2908.3874   -962.88003    297.35754    2418.1881    6524.0656    373.03941 
  192000    3939.2215    360.59917    664.42912    314.93914   -627.32718   -312.38804   -274.21692   -16.287205     4766.133    -1244.688    92.255936    129.31954     395.7853            0    617.36078   -5994.5338   -31.145075      15.7932      15.7932      15.7932            0            0            0   -960.00375   -1437.4652    4004.1221     597.9946   -1128.9333    2524.2261 
  193000    3939.2215    389.45738    4093.7753    340.14325   -585.65049   -245.50723   -10.321869    19.826207    4725.5503   -1246.8803    117.73173    141.22389    402.27423            0    661.22985   -5992.2568   -31.145075      15.7932      15.7932      15.7932            0            0            0    -3174.635   -564.44704    -5682.814    1224.3427    9756.7759    1300.2071 
  194000    3939.2215    386.79053   -3247.5701    337.81409   -624.06418   -286.25009   -472.82139     3.223709    4724.9321   -1264.0254    121.56745    113.41083    404.98294            0    639.96122   -5992.1812   -31.145075      15.7932      15.7932      15.7932            0            0            0    1092.7706   -1970.9315    4716.4374   -5340.4451   -3488.5116   -913.75365 
  195000    3939.2215    377.75298   -1055.0978    329.92089   -646.89289     -316.972   -377.58684    22.924689    4695.2133   -1281.6522    103.48988    122.85911    408.41027            0    634.75926   -5999.7902   -31.145075      15.7932      15.7932      15.7932            0            0            0    -847.2084    270.62916   -9959.8585    2911.1327   -2478.1199   -3598.3061 
  196000    3939.2215    362.10527    3862.5991    316.25454   -599.86653     -283.612   -61.707588   -3.4304727    4751.8542   -1243.7687    102.47349    140.24975    401.17894            0    643.90218   -5992.1925   -31.145075      15.7932      15.7932      15.7932            0            0            0    1003.5665   -689.31676   -1617.8857     6632.609    1244.7516    3710.4367 
  197000    3939.2215    368.10319    -326.9211    321.49299   -623.22221   -301.72922   -320.51067    16.486337    4723.2597   -1257.2138    101.26253    130.11622     402.6128            0    633.99156   -5996.9598   -31.145075      15.7932      15.7932      15.7932            0            0            0    2161.5958   -1743.2634    1185.8419    720.37972   -2926.3437    1225.2007 
[...]
 9955000    3939.2215    360.80982    5284.2706    315.12312   -595.45387   -280.33075     23.24798    19.571225    4739.1509   -1233.0962    93.390009    151.57236    392.67999            0    637.64235   -5991.8183   -31.145075      15.7932      15.7932      15.7932            0            0            0   -2183.5158   -1949.9774    4005.4395    1311.7619    8084.2788     6456.771 
 9956000    3939.2215    357.15055    2229.6428     311.9272   -618.61806   -306.69087   -178.59899    -8.663936     4738.015   -1268.8834    95.309814     159.1858     395.7697            0    650.26531   -5998.2345   -31.145075      15.7932      15.7932      15.7932            0            0            0    4362.9262   -1799.6949   -946.46472    335.48823    3631.8161     2721.624 
 9957000    3939.2215    388.30481    -2102.004    339.13662   -631.27835   -292.14173   -412.90083   -16.188136    4752.7483    -1260.777    109.73301    119.17946    400.58614            0    629.49861   -5997.3371   -31.145075      15.7932      15.7932      15.7932            0            0            0    1999.7117    3589.4109    2467.6962   -6546.8157    4784.7607   -4543.9572 
 9958000    3939.2215     366.8263   -55.502655    320.37778   -604.42929   -284.05151   -287.24011   -1.7360198    4746.7613   -1248.7133    101.52726     140.3464    402.41032            0    644.28398   -5993.7386   -31.145075      15.7932      15.7932      15.7932            0            0            0    693.46706    2759.0168    4467.3656   -4487.7559    996.13819    3325.1097 
 9959000    3939.2215    390.02084   -774.17528    340.63536   -607.58089   -266.94552   -311.42151    7.1273613    4758.4671   -1229.2366    91.118021    123.24629    407.29143            0    621.65575   -5994.8311   -31.145075      15.7932      15.7932      15.7932            0            0            0   -1143.7594    2756.7503   -4127.4488   -743.09979   -5148.0903    3568.6643 
 9960000    3939.2215     354.9247   -385.26779    309.98319   -629.49738   -319.51419   -341.64763    14.099446    4717.0277   -1263.9952    90.232295    144.80372    399.46182            0    634.49783   -5995.1224   -31.145075      15.7932      15.7932      15.7932            0            0            0   -1290.3769   -1509.3803   -775.65272   -4156.6707   -1777.4775    4778.3448 
 9961000    3939.2215    367.54521    3775.7325    321.00566   -622.60363   -301.59797   -84.684003    16.373659    4720.6629   -1257.0249    96.751263     142.2092    395.46078            0    634.42124   -5994.0615   -31.145075      15.7932      15.7932      15.7932            0            0            0    277.65977   -3595.1239   -307.13881    3432.3108    2844.4863    5050.4004 
 9962000    3939.2215     345.9243   -3299.3876    302.12244   -616.35919   -314.23675   -503.78493    6.4275489    4727.4548   -1261.8816    103.32385     142.7469    399.45165            0    645.52241    -5995.764   -31.145075      15.7932      15.7932      15.7932            0            0            0     -1842.87   -1452.5648    617.60983   -8515.8288    -2478.806    1096.4721 
 9963000    3939.2215    375.71325   -2461.5333    328.13944   -608.35403   -280.21459   -421.62847  -0.83154965    4725.5509   -1266.9575    117.16287    141.98912     399.4515            0    658.60348   -5991.6769   -31.145075      15.7932      15.7932      15.7932            0            0            0      3241.25   -6733.7932   -1448.3027    -2039.108   -7281.2522    1935.7603 
 9964000    3939.2215    362.39989    -439.9227    316.51185    -630.3249   -313.81305   -339.08639    27.114003    4692.5936   -1275.4126     105.1705    134.83215    405.08504            0    645.08769   -5995.1202   -31.145075      15.7932      15.7932      15.7932            0            0            0   -4266.6242     -3368.15    4316.8276    1398.1058   -671.72025   -2046.1537 
 9965000    3939.2215    357.84921    449.19073    312.53739   -606.28129    -293.7439   -267.93811    7.5889222    4733.7028   -1254.7806    108.77142    144.97374    394.75419            0    648.49934   -5996.0723   -31.145075      15.7932      15.7932      15.7932            0            0            0    5870.6021    7766.1932   -5822.3082    987.41602    1278.3676   -918.21148 
 9966000    3939.2215     356.2951    437.72121    311.18007   -646.75649   -335.57642   -310.42955    3.0269149    4725.6567   -1268.6273     94.55291    127.93488    399.38301            0     621.8708   -5997.3109   -31.145075      15.7932      15.7932      15.7932            0            0            0    941.45172    -5988.604   -463.07716   -2793.4501    6522.7555   -2416.1417 
 9967000    3939.2215    374.30894   -6666.9983    326.91295   -604.70492   -277.79197   -660.80773   -51.638909    4807.2297    -1242.884    107.83584    124.69203    405.65121            0    638.17909   -5998.4748   -31.145075      15.7932      15.7932      15.7932            0            0            0      162.439    2706.1256    2932.5702    -10901.98   -6102.0714   -2996.9431 
 9968000    3939.2215    342.44817    4675.8873    299.08648   -630.43313   -331.34665   -62.719238   -4.6959168    4737.7878   -1270.1674     93.59315    138.58173    407.55943            0    639.73431   -6003.2594   -31.145075      15.7932      15.7932      15.7932            0            0            0    866.19116    2695.6386    1054.1352    1123.5543    6985.8885    5918.2192 
 9969000    3939.2215    358.05499   -3779.0332    312.71711   -632.58456   -319.86745   -536.97104    17.870181    4711.9444   -1262.9076    100.87607    122.65957    406.78735            0      630.323   -5992.7221   -31.145075      15.7932      15.7932      15.7932            0            0            0    644.64638    6717.1256   -1895.9685   -2731.5174   -6283.2406   -2322.3418 
 9970000    3939.2215    379.34746     307.0456    331.31348   -599.10325   -267.78978   -250.15016     14.35485    4751.2052   -1229.3214    97.540909    127.57299    405.10428            0    630.21818   -5994.8815   -31.145075      15.7932      15.7932      15.7932            0            0            0     50.82632    2205.5971    3753.8256   -5377.0073    2818.9501    3479.1939 
 9971000    3939.2215     366.1052   -1078.0429    319.74799   -597.24547   -277.49748   -339.43051   -17.618923    4761.1192   -1249.5643    99.828917    149.53751    402.95244            0    652.31887   -5993.0646   -31.145075      15.7932      15.7932      15.7932            0            0            0   -663.99607   -1535.9681   -3810.7323    3294.5644   -2646.1644   -3882.5288 
 9972000    3939.2215    365.76999   -3318.0871    319.45522   -622.65429   -303.19907   -493.82153    4.2904771    4737.5324   -1256.8293    105.84265    123.81097    404.52137            0    634.17499   -5998.6521   -31.145075      15.7932      15.7932      15.7932            0            0            0   -198.41874    5560.0348     4514.544   -3978.8938   -2211.1737   -3764.1936 
 9973000    3939.2215    389.00485   -155.00281    339.74802   -610.24581   -270.49779   -279.40262  -0.29710538    4734.2602   -1259.4096    107.51641    143.34427    398.30309            0    649.16377   -5993.3726   -31.145075      15.7932      15.7932      15.7932            0            0            0   -6392.4847   -1920.0795   -720.98018   -304.93667    384.01389   -544.08564 
 9974000    3939.2215     359.4757    2078.9911    313.95793   -622.55019   -308.59226   -189.15525    2.9650683    4724.5752   -1261.5045    103.50432    134.45342    400.99652            0    638.95427   -5989.0447   -31.145075      15.7932      15.7932      15.7932            0            0            0   -2363.7859    1540.8258    2475.1688    3692.7918    1415.7155     1128.466 
 9975000    3939.2215    364.28053   -3966.1987    318.15436   -610.51811   -292.36375    -520.2199   -20.314926    4782.2309    -1236.248    90.230409    138.98675    396.51276            0    625.72992    -5998.164   -31.145075      15.7932      15.7932      15.7932            0            0            0    -257.1825    3747.0332    92.035658   -2580.6888   -2841.4299   -6476.4774 
 9976000    3939.2215    387.74468    2241.2728    338.64742   -611.34424   -272.69682    -143.9368   -4.1685298    4764.1914   -1233.6215    93.244912     127.1387     401.8937            0    622.27731   -5993.6444   -31.145075      15.7932      15.7932      15.7932            0            0            0    3390.0692   -498.39405    1579.2312    3619.6884   -1487.1909     4591.321 
 9977000    3939.2215    384.57829   -3260.1859    335.88197    -636.7258   -300.84384    -488.1399    -2.565802    4745.3111   -1251.4595    79.671031    140.56094    394.50172            0    614.73369   -5994.2048   -31.145075      15.7932      15.7932      15.7932            0            0            0   -1621.5244   -954.18218   -967.59004   -1118.0698   -6516.9533   -2145.5345 
 9978000    3939.2215    362.13735    932.36409    316.28255   -618.19285    -301.9103   -248.34644   -6.2897593    4762.6875   -1237.0978    91.815226    131.46947    395.62021            0    618.90491   -5993.4955   -31.145075      15.7932      15.7932      15.7932            0            0            0    2327.0328    1384.8061   -1181.5129    410.24519    1924.5403    462.30676 
 9979000    3939.2215    376.97067   -1395.2205    329.23764   -617.74329   -288.50565   -368.66038   -21.438678    4762.1716   -1256.8523    100.14333    135.71341    403.25229            0    639.10903   -5997.5852   -31.145075      15.7932      15.7932      15.7932            0            0            0    4871.9716   -1048.6559    853.99604   -1692.4258    900.04721   -3393.2828 
 9980000    3939.2215    351.49706     4196.267    306.98957   -617.48156   -310.49199   -69.418524    12.822149    4734.1454   -1248.5372    95.744415    132.89895    402.41229            0    631.05565   -5995.5048   -31.145075      15.7932      15.7932      15.7932            0            0            0    868.62829     2544.302   -1520.9366    2763.4202    7872.5403    1952.8404 
 9981000    3939.2215    383.72389    2254.3643    335.13575   -619.86448   -284.72872   -155.21661    11.819461     4725.494   -1260.4899    88.592807    153.72947    398.30319            0    640.62547   -5997.8034   -31.145075      15.7932      15.7932      15.7932            0            0            0   -1395.9969   -2407.2683    -2173.128    3860.6322     4846.101   -1943.6404 
 9982000    3939.2215    341.07946   -823.05703    297.89107   -615.96748    -318.0764   -365.36062   -12.841114    4754.5097    -1255.763    88.904143    155.86165    395.02976            0    639.79556   -5997.4317   -31.145075      15.7932      15.7932      15.7932            0            0            0    69.890321   -1305.0206    1193.6209    -2047.366    464.75544   -886.56048 
 9983000    3939.2215    388.40149   -256.76557    339.22106   -595.11404   -255.89298   -270.64404   -4.3125003    4763.2375   -1235.8984    104.47653    137.28171    399.02612            0    640.78435   -5994.8234   -31.145075      15.7932      15.7932      15.7932            0            0            0   -1430.6413    1121.0081   -1442.6074   -1855.1604    2366.7538   -1281.8901 
 9984000    3939.2215    381.68365    428.29616    333.35385   -629.00997   -295.65612   -271.05071   -22.015811     4777.053   -1246.2582    87.282373    134.50869    395.45722            0    617.24828   -6001.2955   -31.145075      15.7932      15.7932      15.7932            0            0            0    93.289615   -342.68208    2454.1792    8011.7621   -1719.1604   -5007.7132 
 9985000    3939.2215    392.34613   -1274.4096    342.66622   -562.97748   -220.31126   -293.52546   -17.254326    4777.5862   -1231.1109    122.32865    151.94438    393.86044            0    668.13346   -5991.4428   -31.145075      15.7932      15.7932      15.7932            0            0            0   -4730.4469    3143.1451    2282.8865    -3952.091    902.87659    -774.0143 
 9986000    3939.2215    358.49874   -4153.8465    313.10467   -570.21455   -257.10987    -495.7463   -26.353123    4820.8651   -1197.7344    94.717814    125.93386    406.86814            0    627.51981   -5992.2463   -31.145075      15.7932      15.7932      15.7932            0            0            0   -3188.4078   -1465.8987   -2621.5572   -2893.6053    -6432.999   -3134.9351 
 9987000    3939.2215    393.62265   -3039.9185    343.78111    -607.9455    -264.1644   -438.80621   -1.6026494    4735.5738   -1260.4236    105.85385    142.91503    403.70923            0    652.47811   -5994.3947   -31.145075      15.7932      15.7932      15.7932            0            0            0     1764.899    4970.9536    1735.3611    1350.1748    3259.0613   -13728.992 
 9988000    3939.2215    377.91871   -365.68855    330.06564    -612.5882   -282.52256   -303.53118      0.46858    4734.7792    -1259.248    101.08547    147.92212    397.65226            0    646.65985   -5994.4959   -31.145075      15.7932      15.7932      15.7932            0            0            0   -2099.3647   -1230.0493    950.43582   -3133.7082   -387.30047     2423.943 
 9989000    3939.2215    366.04703   -7083.4769    319.69719   -628.65276   -308.95557   -715.89781      5.09571    4706.0505   -1282.0733    113.73745    144.92808    394.75502            0    653.42054   -5993.2195   -31.145075      15.7932      15.7932      15.7932            0            0            0   -1258.1945   -4067.9165   -1119.9553   -6848.7914   -9644.3896   -4757.2496 
 9990000    3939.2215    344.14681     915.7662    300.57003   -610.37088   -309.80085   -257.19053   -3.7947107    4748.3792   -1245.0613    94.627099    135.39596    404.66735            0    634.69041   -5989.6458   -31.145075      15.7932      15.7932      15.7932            0            0            0    3760.0384   -1435.2988   -1308.6834    117.28423     5557.388   -2927.3736 
 9991000    3939.2215    380.04575   -5047.2933    331.92335   -625.87006   -293.94671   -583.91122   -24.882163    4751.6884   -1270.7291    90.290306    144.03298    410.53573            0    644.85901   -5997.5353   -31.145075      15.7932      15.7932      15.7932            0            0            0   -2105.7104    -1470.005    1251.3827   -4074.6495   -9867.1004     -1200.13 
 9992000    3939.2215    369.93318   -117.09881    323.09126   -618.51681   -295.42555   -302.15282    34.914532    4703.6716   -1251.0848    105.01287     131.8759     395.6792            0    632.56797   -5989.6709   -31.145075      15.7932      15.7932      15.7932            0            0            0    5499.6423   -2482.8383   -1854.5983    1419.7696   -1730.0234   -41.042662 
 9993000    3939.2215    391.48256    4854.6394      341.912   -605.68787   -263.77587    15.120764   -15.065931    4767.9521   -1238.7805    93.095856    143.17897    396.81781            0    633.09264   -5991.6667   -31.145075      15.7932      15.7932      15.7932            0            0            0   -2197.2118    4792.2067    6483.4056   -1390.2512    10910.416    5043.7539 
 9994000    3939.2215    343.79164    3715.5482    300.25983   -599.34196   -299.08213   -85.625726    12.856916    4742.5707   -1242.1217    94.483701    153.51228    394.78379            0    642.77977   -5997.5494   -31.145075      15.7932      15.7932      15.7932            0            0            0   -1759.5276   -720.77717   -2355.1993    6130.4113    6813.8475   -1797.6143 
 9995000    3939.2215    377.41106    265.49364    329.62227   -615.26898   -285.64672   -270.39424    5.4379673    4729.2748   -1263.7695    97.398011    152.31698    398.78551            0    648.50051   -5998.4822   -31.145075      15.7932      15.7932      15.7932            0            0            0    578.68104    1442.4732   -1763.8138    3514.4725   -4643.3357    1925.3441 
 9996000    3939.2215      384.474    1102.5163    335.79088   -617.30238    -281.5115   -218.17248    6.8881854    4733.1488   -1251.3042    103.56431    130.09845    400.33908            0    634.00184   -5991.3412   -31.145075      15.7932      15.7932      15.7932            0            0            0    1974.8711   -2096.6508   -26.239808   -3539.2082     8107.813    -1261.056 
 9997000    3939.2215    353.56436    3078.4388     308.7951   -595.68954   -286.89444   -110.03965    4.5565401      4773.81    -1212.012    96.819351    126.54796    392.95519            0     616.3225   -5990.3786   -31.145075      15.7932      15.7932      15.7932            0            0            0   -2640.9153    1805.7961    516.26607    189.74543   -350.88152    9396.4526 
 9998000    3939.2215    346.51939     637.4468    302.64219   -610.00496   -307.36278   -270.74177     8.351805     4710.064   -1274.1988    104.19409    157.98294    402.01685            0    664.19389   -5992.6146   -31.145075      15.7932      15.7932      15.7932            0            0            0     2010.104    -378.5697   -650.42276    4658.0018    4326.6648   -7072.3263 
 9999000    3939.2215    384.49135    2203.5712    335.80603   -598.31476   -262.50872   -135.91465    26.653015    4732.1165   -1233.8507    93.036271    141.24342    401.25626            0    635.53596   -5992.6203   -31.145075      15.7932      15.7932      15.7932            0            0            0   -3541.7131    1206.3913    891.20353    254.77413    3892.4655     2463.474 
10000000    3939.2215     374.9103    1818.4789    327.43816   -660.09241   -332.65425   -228.18354   -11.279625    4748.5706   -1256.7783    71.376024    128.53229    396.77753            0    596.68584   -5994.0692   -31.145075      15.7932      15.7932      15.7932            0            0            0    573.97871   -265.55743    872.23051    2565.2859    2582.6764    307.47442 
Loop time of 5252.39 on 4 procs for 10000000 steps with 294 atoms

Performance: 164.496 ns/day, 0.146 hours/ns, 1903.894 timesteps/s
92.7% CPU use with 4 MPI tasks x 1 OpenMP threads

MPI task timing breakdown:
Section |  min time  |  avg time  |  max time  |%varavg| %total
---------------------------------------------------------------
Pair    | 1289.6     | 1426.1     | 1549.6     | 270.7 | 27.15
Bond    | 124.12     | 125.54     | 126.53     |   8.7 |  2.39
Kspace  | 2541.7     | 2671       | 2811.2     | 203.0 | 50.85
Neigh   | 160.73     | 160.91     | 161.11     |   1.4 |  3.06
Comm    | 733.35     | 738.23     | 746.05     |  17.4 | 14.06
Output  | 3.3035     | 3.3629     | 3.5402     |   5.6 |  0.06
Modify  | 55.154     | 57.139     | 59.054     |  20.7 |  1.09
Other   |            | 70.15      |            |       |  1.34

Nlocal:    73.5 ave 82 max 68 min
Histogram: 1 0 1 1 0 0 0 0 0 1
Nghost:    1633 ave 1647 max 1605 min
Histogram: 1 0 0 0 0 0 0 0 2 1
Neighs:    8297.5 ave 9493 max 7083 min
Histogram: 1 0 0 0 0 2 0 0 0 1

Total # of neighbors = 33190
Ave neighs/atom = 112.891
Ave special neighs/atom = 4.87755
Neighbor list builds = 416693
Dangerous builds = 0


write_restart   restart.${NAME}
write_restart   restart.mol
PPPM initialization ...
  using 12-bit tables for long-range coulomb (src/kspace.cpp:332)
  G vector (1/distance) = 0.3803
  grid = 12 12 12
  stencil order = 5
  estimated absolute RMS force accuracy = 0.0233741
  estimated relative force accuracy = 7.03904e-05
  using double precision KISS FFT
  3d grid and FFT values/proc = 3211 432
write_data	data.*
PPPM initialization ...
  using 12-bit tables for long-range coulomb (src/kspace.cpp:332)
  G vector (1/distance) = 0.3803
  grid = 12 12 12
  stencil order = 5
  estimated absolute RMS force accuracy = 0.0233741
  estimated relative force accuracy = 7.03904e-05
  using double precision KISS FFT
  3d grid and FFT values/proc = 3211 432
Total wall time: 1:27:32
