LAMMPS data file via write_data, version 3 Mar 2020, timestep = 10000000

294 atoms
8 atom types
226 bonds
5 bond types
275 angles
8 angle types
270 dihedrals
6 dihedral types

0.0000000000000000e+00 1.5793200000000001e+01 xlo xhi
0.0000000000000000e+00 1.5793200000000001e+01 ylo yhi
0.0000000000000000e+00 1.5793200000000001e+01 zlo zhi

Masses

1 6.941
2 16
3 19
4 12.01
5 32.06
6 14.01
7 16
8 1.008

Pair Coeffs # lj/cut/coul/long

1 0.0182661 2.126
2 0.209859 2.96
3 0.0609584 3.118
4 0.109326 3.4
5 0.249833 3.564
6 0.169886 3.25
7 0.155323 3.165
8 0 0

Bond Coeffs # harmonic

1 492.67 1.466
2 363.556 1.344
3 248.733 1.782
4 256.929 1.752
5 529.23 1.012

Angle Coeffs # harmonic

1 41.2526 108.48
2 45.27 121.88
3 43.0716 107.06
4 81.1647 109.67
5 71.2115 107.16
6 39.3938 103.12
7 109.646 119.18
8 37.9249 113.24

Dihedral Coeffs # charmm

1 0.143897 3 0 0
2 0.143897 3 0 0
3 0.499666 3 180 0
4 6.79545 1 180 0
5 0.499666 3 180 0
6 6.79545 1 180 0

Atoms # full

89 15 2 -4.6100000000000002e-01 1.9522328481733411e+00 5.6426556417573366e+00 3.9222094750511438e+00 0 -2 -1
88 15 5 9.1100000000000003e-01 3.3878257405036556e+00 5.7335521549190798e+00 3.7796703636358449e+00 0 -2 -1
85 15 2 -4.6100000000000002e-01 3.9671994413912759e+00 7.0784878267629718e+00 3.3428613118513675e+00 0 -2 -1
250 54 7 -8.1999999999999995e-01 2.1573720893735655e+00 2.1000266263098912e+00 4.9442817627341826e+00 -2 -2 -5
235 49 7 -8.1999999999999995e-01 2.4279237283698274e+00 2.0402647019455613e+00 1.5738293199618509e+00 1 0 5
91 15 6 -5.8799999999999997e-01 3.6245196264975035e+00 4.5827680669879101e+00 2.4320435964469409e+00 0 -2 -1
71 14 3 -1.3800000000000001e-01 7.6026234071833909e-01 4.4641046641579338e+00 6.3350955416365613e+00 -1 1 -3
72 14 4 3.1900000000000001e-01 1.1506014182926234e-01 5.1508286353342294e+00 7.2431713471459913e+00 -1 1 -3
93 15 3 -1.3800000000000001e-01 3.8979830721579836e+00 5.5172070927627352e+00 6.3843012171822844e+00 0 -2 -1
94 15 5 9.1100000000000003e-01 4.1381749049481833e+00 5.3000631594270411e+00 8.5531508492428776e-01 0 -2 -1
236 49 8 4.0999999999999998e-01 2.8780417644977878e+00 1.8784659059333184e+00 2.4369254534812130e+00 1 0 5
237 49 8 4.0999999999999998e-01 2.6004568684489304e+00 3.0927242436792177e+00 1.4365674780305233e+00 1 0 5
87 15 4 3.1900000000000001e-01 4.3291359275154004e+00 5.0643887743922074e+00 5.2271128393325128e+00 0 -2 -1
98 15 4 3.1900000000000001e-01 3.1166071957169090e+00 6.6803577939117185e+00 5.4537112386315867e-01 0 -2 -1
251 54 8 4.0999999999999998e-01 2.4262196812261787e+00 2.8154190289751542e+00 4.3359995403867702e+00 -2 -2 -5
90 15 3 -1.3800000000000001e-01 4.2426407967029807e+00 3.6752499300654922e+00 5.3009246425296999e+00 0 -2 -1
252 54 8 4.0999999999999998e-01 2.0101886078578972e+00 1.2067524336821454e+00 4.4047588385521479e+00 -2 -2 -5
97 15 3 -1.3800000000000001e-01 1.8218441509485526e+00 6.5706444564304585e+00 9.4679498513450422e-01 0 -2 -1
115 17 2 -4.6100000000000002e-01 4.5826259339556383e+00 1.4568408320577095e+00 3.3775567075105624e+00 1 0 1
6 6 1 8.0000000000000004e-01 2.2965025242969590e+00 6.4380060413405116e-01 1.6306695880706457e-01 -6 -1 3
164 25 8 4.0999999999999998e-01 2.7642812395006473e+00 1.7821929849993394e+00 6.4385284892231667e+00 -5 4 1
266 59 8 4.0999999999999998e-01 5.1644929089437153e-01 5.3247371221590809e+00 2.8028750986848627e+00 0 2 0
78 14 3 -1.3800000000000001e-01 3.9693524046693007e-01 6.4718157051494209e+00 6.9395957186130257e+00 -1 1 -3
255 55 8 4.0999999999999998e-01 4.2035344412257292e+00 4.2031343956539724e-01 6.6827370409944553e+00 -3 -4 0
165 25 8 4.0999999999999998e-01 3.5968995154309864e+00 2.5369081899259163e+00 7.6149423661544393e+00 -5 4 1
95 15 2 -4.6100000000000002e-01 3.6216386829932086e+00 4.1551683043222072e+00 6.8650039243360633e-02 0 -2 -1
163 25 7 -8.1999999999999995e-01 3.1803628708384299e+00 1.6661771670472438e+00 7.4069560062212076e+00 -5 4 1
173 28 8 4.0999999999999998e-01 5.7857060317434259e+00 7.7803942118715588e+00 3.1162268546716474e+00 1 2 -5
92 15 2 -4.6100000000000002e-01 5.5633152549582601e+00 5.6804344747883615e+00 1.1679978893542877e+00 0 -2 -1
86 15 3 -1.3800000000000001e-01 5.6553995790605009e+00 5.3997473719817144e+00 5.1813230933222014e+00 0 -2 -1
149 20 8 4.0999999999999998e-01 1.0114044307599540e+01 2.3418089231689039e+00 5.5077878816273413e+00 -2 -2 1
179 30 8 4.0999999999999998e-01 7.2294727285901130e+00 5.4700216373552122e+00 1.4466524375074181e+00 0 -5 2
117 17 4 3.1900000000000001e-01 7.2842106132133893e+00 2.0210781620940685e+00 2.5744431759479163e+00 1 0 1
217 43 7 -8.1999999999999995e-01 1.0110386151397252e+01 7.0153176776111454e+00 3.0999762718867894e+00 7 -1 -1
123 17 3 -1.3800000000000001e-01 7.1937058307029904e+00 2.2610350659316332e+00 1.3166597912989608e+00 1 0 1
120 17 3 -1.3800000000000001e-01 7.1453229047519828e+00 3.2927680977109324e+00 3.0504338383235825e+00 1 0 1
242 51 8 4.0999999999999998e-01 9.5911729346598200e+00 5.6769323644727674e+00 4.0476669215511309e+00 -5 4 -2
191 34 8 4.0999999999999998e-01 7.9733745544902526e+00 2.0206994887580723e+00 6.6087221185283553e+00 -2 -12 -1
178 30 7 -8.1999999999999995e-01 8.2810016395880268e+00 5.6985871226112330e+00 1.4207377956974945e+00 0 -5 2
219 43 8 4.0999999999999998e-01 9.5532619285948197e+00 6.6482287715262656e+00 2.2977599296446778e+00 7 -1 -1
192 34 8 4.0999999999999998e-01 7.8233919515407599e+00 6.9732411320219900e-01 5.5436562670412632e+00 -2 -12 -1
241 51 7 -8.1999999999999995e-01 9.4934030396808087e+00 4.8579759252002646e+00 4.7281557324372416e+00 -5 4 -2
190 34 7 -8.1999999999999995e-01 8.3307972727242205e+00 1.6177851376709131e+00 5.7591595452299558e+00 -2 -12 -1
116 17 3 -1.3800000000000001e-01 8.5156273648199630e+00 1.5494831681011645e+00 2.7518214647301202e+00 1 0 1
187 33 7 -8.1999999999999995e-01 8.5822913202194346e+00 4.9973087964091176e+00 7.6344388439241513e+00 -3 5 1
243 51 8 4.0999999999999998e-01 9.0942235120977255e+00 4.0684400427709555e+00 4.1550543327002929e+00 -5 4 -2
189 33 8 4.0999999999999998e-01 8.9038324099911250e+00 5.1094869288569713e+00 6.7005252961346216e+00 -3 5 1
177 29 8 4.0999999999999998e-01 9.3988204832427407e+00 7.4468735933802961e+00 6.6220706683789814e+00 -7 -1 -3
118 17 5 9.1100000000000003e-01 5.9649075591101903e+00 9.2583495200355148e-01 3.1446384791289144e+00 1 0 1
166 26 7 -8.1999999999999995e-01 1.0292598635696448e+01 1.2426762261273940e+00 8.1220098082564807e-01 -2 -5 -5
119 17 2 -4.6100000000000002e-01 6.4679162554782241e+00 8.2147645043771422e-02 4.2761959792884090e+00 1 0 1
180 30 8 4.0999999999999998e-01 8.6402172245774640e+00 5.3152862472522058e+00 5.4054845340906477e-01 0 -5 2
188 33 8 4.0999999999999998e-01 8.1869858417206629e+00 4.0267093815161203e+00 7.7314181898367034e+00 -3 5 1
234 48 8 4.0999999999999998e-01 1.4830149142718634e+01 2.2800036280516629e+00 1.1359663002159035e+00 -10 4 -1
267 59 8 4.0999999999999998e-01 1.5090052713037803e+01 4.4684567241713209e+00 2.2645760891144442e+00 -1 2 0
80 14 2 -4.6100000000000002e-01 1.1293818686873690e+01 7.1753322454478417e+00 7.5824108191020407e+00 -2 1 -3
70 14 2 -4.6100000000000002e-01 1.3724529580564282e+01 3.6330290654158444e+00 7.8558413936758624e+00 -2 1 -3
182 31 8 4.0999999999999998e-01 1.5594196715652616e+01 1.5406831892716347e-01 5.8423699332056698e+00 -3 -5 2
150 20 8 4.0999999999999998e-01 1.0674991351022859e+01 3.9031300030404337e+00 5.7113825358085446e+00 -2 -2 1
148 20 7 -8.1999999999999995e-01 1.0831047369696924e+01 2.9505577012020439e+00 5.9671000015620415e+00 -2 -2 1
293 68 8 4.0999999999999998e-01 1.3803718347653275e+01 5.7100717111039194e-02 7.3195643808884867e+00 1 -10 0
4 4 1 8.0000000000000004e-01 1.4110447988661342e+01 6.5372733779742953e+00 4.2542386272731827e+00 3 -4 -1
73 14 5 9.1100000000000003e-01 1.4111869081337971e+01 4.9200605565424214e+00 7.1953636454810121e+00 -2 1 -3
265 59 7 -8.1999999999999995e-01 1.5233239206293131e+01 5.3360057663146367e+00 2.7630162508360128e+00 -1 2 0
232 48 7 -8.1999999999999995e-01 1.4412917568805939e+01 2.8645105032441815e+00 1.8536828930500706e+00 -10 4 -1
197 36 8 4.0999999999999998e-01 1.2001486731663737e+01 4.9469720055781226e+00 9.0582388370559008e-01 -2 -2 4
79 14 5 9.1100000000000003e-01 1.2699198602708979e+01 7.5466081262657294e+00 7.5048467688231302e+00 -2 1 -3
9 9 1 8.0000000000000004e-01 1.2691847165179329e+01 1.7812035050850261e+00 5.9643858528003966e+00 0 1 3
196 36 7 -8.1999999999999995e-01 1.2128984784677714e+01 3.9506381275404805e+00 8.6278683105139164e-01 -2 -2 4
168 26 8 4.0999999999999998e-01 1.0727400803432319e+01 1.5757900641635556e+00 1.6873605733091044e+00 -2 -5 -5
74 14 2 -4.6100000000000002e-01 1.3590431517315190e+01 5.1098544020016385e+00 5.8493814364264036e+00 -2 1 -3
281 64 8 4.0999999999999998e-01 1.5276710893856109e+01 2.0556167513755983e+00 4.5072394790467163e+00 -1 -1 -2
194 35 8 4.0999999999999998e-01 1.1805399491149599e+01 7.1385730000532615e+00 2.8827627239568980e+00 0 2 -5
282 64 8 4.0999999999999998e-01 1.4220560077558718e+01 2.8134647323293223e+00 3.4766104370449171e+00 -1 -1 -2
233 48 8 4.0999999999999998e-01 1.3664488711369859e+01 3.4142252020923780e+00 1.4748118000635935e+00 -10 4 -1
280 64 7 -8.1999999999999995e-01 1.4293997599699402e+01 2.3924343514185842e+00 4.4274707172030610e+00 -1 -1 -2
292 68 7 -8.1999999999999995e-01 1.2826670093255263e+01 3.0327860136523360e-01 7.3859972487225249e+00 1 -10 0
77 14 2 -4.6100000000000002e-01 1.3381911903422182e+01 7.7486063962010752e+00 6.2183125036935323e+00 -2 1 -3
169 27 7 -8.1999999999999995e-01 1.1630603600195238e+01 3.0726836150653669e-01 4.3961653618057595e+00 0 -3 -3
193 35 7 -8.1999999999999995e-01 1.2782789674532346e+01 7.4356001297314407e+00 2.9811603630996970e+00 0 2 -5
167 26 8 4.0999999999999998e-01 1.0612382030061166e+01 1.8409195944923944e+00 4.4252200402905117e-02 -2 -5 -5
198 36 8 4.0999999999999998e-01 1.1699591420760388e+01 3.5739840140438264e+00 6.1571510977383781e-02 -2 -2 4
8 8 1 8.0000000000000004e-01 1.2225299822412121e+00 9.2997127150767689e-01 1.3142938292841771e+01 -1 -1 -2
162 24 8 4.0999999999999998e-01 5.2466379457677914e-01 3.9809806092458757e+00 1.1500059843022731e+01 0 0 3
57 13 4 3.1900000000000001e-01 3.8257734038050839e+00 5.8009484523365069e+00 1.0620142765955620e+01 1 -1 -2
5 5 1 8.0000000000000004e-01 1.8201481545715132e+00 1.1146652268785098e+00 8.8502696564262244e+00 -3 0 2
99 15 3 -1.3800000000000001e-01 2.9992980601422201e+00 6.8490301501524451e+00 1.5018510040761576e+01 0 -2 -2
75 14 3 -1.3800000000000001e-01 7.4113797173566820e-01 4.8169660422302982e+00 8.4034103082845686e+00 -1 1 -3
199 37 7 -8.1999999999999995e-01 2.5820901570446666e+00 1.9429600126647730e+00 1.4320964680114079e+01 0 -5 0
59 13 2 -4.6100000000000002e-01 3.1481237307644361e+00 3.3084224114468439e+00 1.1028144887104403e+01 1 -1 -2
58 13 5 9.1100000000000003e-01 4.2415780519729225e+00 4.0946757263395881e+00 1.0394705531550613e+01 1 -1 -2
200 37 8 4.0999999999999998e-01 2.3540310189598652e+00 2.7598437510893263e+00 1.4882447089739626e+01 0 -5 0
50 12 2 -4.6100000000000002e-01 4.3442509892199812e+00 2.9889377386633798e-01 1.2674301782257871e+01 0 1 1
55 13 2 -4.6100000000000002e-01 4.6607208024493589e+00 3.8121847913686921e+00 8.9890492233661856e+00 1 -1 -2
63 13 3 -1.3800000000000001e-01 2.7771282666842017e+00 6.2057453429595570e+00 9.8552331191936702e+00 1 -1 -2
60 13 3 -1.3800000000000001e-01 3.6602157742727086e+00 6.3020256961145957e+00 1.1923402268975773e+01 1 -1 -2
201 37 8 4.0999999999999998e-01 3.5024108459157444e+00 2.0759088940899404e+00 1.4012189757688688e+01 0 -5 0
159 23 8 4.0999999999999998e-01 9.0566809664688108e-01 5.0651113352070887e+00 1.4633829057920062e+01 -1 1 1
56 13 3 -1.3800000000000001e-01 4.8722829601734814e+00 6.6446465446001373e+00 1.0194426225747858e+01 1 -1 -2
157 23 7 -8.1999999999999995e-01 2.3708811580560421e-01 4.2920740662629138e+00 1.4726623243778635e+01 -1 1 1
247 53 7 -8.1999999999999995e-01 1.1531403300800953e-02 2.0828372888078044e+00 8.8496112066342807e+00 0 0 5
213 41 8 4.0999999999999998e-01 6.3908178450644622e+00 3.0420569538002282e+00 8.4720284852012426e+00 6 -7 2
61 13 6 -5.8799999999999997e-01 5.5204638694941481e+00 3.2648558169648454e+00 1.1142235908275484e+01 1 -1 -2
100 16 2 -4.6100000000000002e-01 1.0330071492778917e+01 5.6805900215577969e+00 1.5018848407911600e+01 1 -1 -1
65 13 2 -4.6100000000000002e-01 5.6820648596295102e+00 5.0829667038230921e+00 1.2963654851152405e+01 1 -1 -2
212 41 8 4.0999999999999998e-01 7.3725091828168168e+00 1.9426095248143767e+00 8.8530112191747925e+00 6 -7 2
2 2 1 8.0000000000000004e-01 9.5797794888254177e+00 5.9689769312250718e+00 9.2500049871720247e+00 -7 -2 0
62 13 2 -4.6100000000000002e-01 7.6211240059723036e+00 4.5712367064001533e+00 1.1672662270486454e+01 1 -1 -2
68 13 4 3.1900000000000001e-01 6.8546089058231665e+00 2.8544396987239828e+00 1.3773876975675609e+01 1 -1 -2
64 13 5 9.1100000000000003e-01 6.4661038499256369e+00 4.0178358452916658e+00 1.2376260761702339e+01 1 -1 -2
69 13 3 -1.3800000000000001e-01 7.6986539212650342e+00 3.5166518718329196e+00 1.4673409289142805e+01 1 -1 -2
67 13 3 -1.3800000000000001e-01 5.7781985545746402e+00 2.4969872614464932e+00 1.4536457431026960e+01 1 -1 -2
66 13 3 -1.3800000000000001e-01 7.4966273990895758e+00 1.7802431150852782e+00 1.3262853023300224e+01 1 -1 -2
108 16 3 -1.3800000000000001e-01 8.9534166067520431e+00 7.6866962998500830e+00 1.3301285364298845e+01 1 -1 -1
289 67 7 -8.1999999999999995e-01 8.7960789229961200e+00 7.5807411391282189e+00 1.0293232764005186e+01 2 3 7
186 32 8 4.0999999999999998e-01 9.6508156185854528e+00 3.7666774720529563e+00 1.1569935713439277e+01 -4 5 -1
291 67 8 4.0999999999999998e-01 8.2782183764651105e+00 7.6374175263867778e+00 1.1163778287921144e+01 2 3 7
184 32 7 -8.1999999999999995e-01 1.0405872401416181e+01 3.1770325052556929e+00 1.1742399193323696e+01 -4 5 -1
211 41 7 -8.1999999999999995e-01 7.2581514337837429e+00 2.6389519009163505e+00 8.1243843397029156e+00 6 -7 2
185 32 8 4.0999999999999998e-01 1.0446984530600497e+01 2.6701334926888087e+00 1.0870809395496678e+01 -4 5 -1
51 12 3 -1.3800000000000001e-01 5.7051206385241908e+00 1.8461738751092976e-01 9.7511444354584373e+00 0 1 1
160 24 7 -8.1999999999999995e-01 1.5529698938988764e+01 3.4522616601525833e+00 1.1118474633641966e+01 -1 0 3
161 24 8 4.0999999999999998e-01 1.4701269678436502e+01 4.0358048474640027e+00 1.1353828658558834e+01 -1 0 3
256 56 7 -8.1999999999999995e-01 1.5643386978940228e+01 1.7971382966980008e-02 1.1600822494195086e+01 -6 -6 0
154 22 7 -8.1999999999999995e-01 1.5389275658561928e+01 1.7176633085941082e+00 1.4298367969337992e+01 -2 -1 -1
111 16 3 -1.3800000000000001e-01 1.5685253863778708e+01 6.4890630074082987e+00 1.2369847103639806e+01 1 -1 -1
155 22 8 4.0999999999999998e-01 1.5682905994616076e+01 2.6112738322925306e+00 1.4706701007294404e+01 -2 -1 -1
239 50 8 4.0999999999999998e-01 1.2086236939305183e+01 2.4263675818954527e+00 8.8853537038884554e+00 4 0 3
238 50 7 -8.1999999999999995e-01 1.1075672269080801e+01 2.5647978205681952e+00 9.1185936355186481e+00 4 0 3
240 50 8 4.0999999999999998e-01 1.0621267408190244e+01 2.4909762786389904e+00 8.2210944051310637e+00 4 0 3
109 16 5 9.1100000000000003e-01 1.3284708413152622e+01 5.7814435208726440e+00 1.3100949886181068e+01 1 -1 -1
104 16 2 -4.6100000000000002e-01 1.2094508291603811e+01 7.4033205705259499e+00 1.5431709545799041e+01 1 -1 -1
106 16 6 -5.8799999999999997e-01 1.1642647270829093e+01 6.3967900067533927e+00 1.3043002597639701e+01 1 -1 -1
110 16 2 -4.6100000000000002e-01 1.3308412912911416e+01 4.8621362352155391e+00 1.1968741122739504e+01 1 -1 -1
113 16 4 3.1900000000000001e-01 1.4493665247723705e+01 7.1170453296027540e+00 1.2654671724690326e+01 1 -1 -1
153 21 8 4.0999999999999998e-01 1.4122843077499898e+01 1.4528444870831834e+00 1.2216861048862235e+01 1 -4 -5
269 60 8 4.0999999999999998e-01 1.2028763399580988e+01 1.9885958791155094e+00 1.3936278119585847e+01 1 0 3
268 60 7 -8.1999999999999995e-01 1.1193820202710066e+01 2.3566025997714526e+00 1.4406197153137491e+01 1 0 3
248 53 8 4.0999999999999998e-01 1.5110734461529455e+01 2.4489293205332103e+00 8.2282312310723729e+00 -1 0 5
270 60 8 4.0999999999999998e-01 1.0664054534329370e+01 2.8493938839229740e+00 1.3681160275464171e+01 1 0 3
103 16 5 9.1100000000000003e-01 1.1005572603385446e+01 6.8833683898542137e+00 1.4588028317789339e+01 1 -1 -1
249 53 8 4.0999999999999998e-01 1.5726484226881825e+01 2.6121912468542492e+00 9.7474300552360642e+00 -1 0 5
152 21 8 4.0999999999999998e-01 1.2775990140794381e+01 2.4251627114900267e+00 1.2018947572786512e+01 1 -4 -5
156 22 8 4.0999999999999998e-01 1.4612187209177305e+01 1.7360617118741841e+00 1.3618294015296575e+01 -2 -1 -1
246 52 8 4.0999999999999998e-01 1.1571921159573526e+01 5.7909129930644649e+00 1.1141016596865146e+01 -3 8 4
76 14 6 -5.8799999999999997e-01 1.3417906398599735e+01 6.1645706361133099e+00 8.2671230844703878e+00 -2 1 -3
245 52 8 4.0999999999999998e-01 1.2208152939841778e+01 5.6684538912046740e+00 9.5437130666807626e+00 -3 8 4
151 21 7 -8.1999999999999995e-01 1.3232812015198814e+01 1.7744917788580252e+00 1.2644506287041589e+01 1 -4 -5
244 52 7 -8.1999999999999995e-01 1.1405580090339619e+01 5.8220328280043834e+00 1.0091343503897754e+01 -3 8 4
107 16 2 -4.6100000000000002e-01 1.3669580861312934e+01 5.3123011351163001e+00 1.4379620273198096e+01 1 -1 -1
114 16 3 -1.3800000000000001e-01 1.4051067646385352e+01 7.7502987273661992e+00 1.1587459697587358e+01 1 -1 -1
158 23 8 4.0999999999999998e-01 1.5026637512890670e+01 4.7174817532175846e+00 1.4786447013657527e+01 -2 1 1
142 18 3 -1.3800000000000001e-01 3.9933077930579772e+00 9.0132435737108736e+00 7.7735940021694407e+00 -1 0 0
143 18 4 3.1900000000000001e-01 4.6109112985749432e+00 9.7018965038265037e+00 6.7424012226824921e+00 -1 0 0
141 18 3 -1.3800000000000001e-01 3.6261332431794244e+00 9.6838210985261171e+00 5.8482467408521535e+00 -1 0 0
261 57 8 4.0999999999999998e-01 2.2339941196680742e+00 1.2280797226166589e+01 3.9372920685604367e+00 4 -1 -3
140 18 2 -4.6100000000000002e-01 4.4023611087552732e+00 1.2361114418847635e+01 7.4790893600769150e+00 -1 0 0
124 17 5 9.1100000000000003e-01 4.5274296927898519e+00 1.4250750965139376e+01 2.0476156280614699e+00 1 -1 1
260 57 8 4.0999999999999998e-01 1.4749783238329353e+00 1.2659668208181053e+01 5.4611649602721402e+00 4 -1 -3
259 57 7 -8.1999999999999995e-01 2.3229912070346788e+00 1.2486842466721667e+01 4.9280552771651660e+00 4 -1 -3
122 17 2 -4.6100000000000002e-01 4.4894455369988622e+00 1.3865915684867950e+01 3.4748146204058883e+00 1 -1 1
1 1 1 8.0000000000000004e-01 4.1511196424420076e+00 1.3485046769628207e+01 5.6400711173186560e+00 1 -2 -1
35 11 2 -4.6100000000000002e-01 1.5545338317900246e+00 1.2002714381887301e+01 1.9904384356839429e+00 -1 2 0
128 17 4 3.1900000000000001e-01 5.1843008116417950e+00 1.2907198667673221e+01 1.0707515683259889e+00 1 -1 1
127 17 3 -1.3800000000000001e-01 5.1390302822348559e+00 1.1762780796171331e+01 1.8300339927026779e+00 1 -1 1
125 17 2 -4.6100000000000002e-01 3.2694997509764328e+00 1.4929463871189625e+01 1.7107786004008458e+00 1 -1 1
96 15 3 -1.3800000000000001e-01 3.6119828490691095e+00 7.9019506891540292e+00 9.0001669501401027e-01 0 -2 -1
34 11 5 9.1100000000000003e-01 3.0800310941732345e-01 1.1874859356163295e+01 1.1983080152016576e+00 -1 2 0
210 40 8 4.0999999999999998e-01 2.4642560241491229e+00 1.5035876709945908e+01 3.5987093108571058e+00 3 -4 5
228 46 8 4.0999999999999998e-01 8.0782853194840776e-01 1.2037402875510660e+01 7.5762705091609561e+00 6 2 6
209 40 8 4.0999999999999998e-01 9.0888763347087687e-01 1.5414858436479825e+01 3.1336001289141802e+00 3 -4 5
208 40 7 -8.1999999999999995e-01 1.6350644270845140e+00 1.5584664176777403e+01 3.8166121920797131e+00 3 -4 5
39 11 3 -1.3800000000000001e-01 9.7730156143703306e-01 9.6355517721329349e+00 1.6423433481123362e-01 -1 2 0
37 11 3 -1.3800000000000001e-01 1.5242065746666023e-01 9.3742279376715167e+00 2.0684817538802904e+00 -1 2 0
38 11 4 3.1900000000000001e-01 2.5567094939434050e-02 1.0123530542166181e+01 9.5444440214091097e-01 -1 2 0
253 55 7 -8.1999999999999995e-01 4.6760009115814860e+00 1.5392755689552223e+01 6.3077315714210815e+00 -3 -5 0
139 18 5 9.1100000000000003e-01 5.3330256249902863e+00 1.1254389695734085e+01 7.2430694085460701e+00 -1 0 0
172 28 7 -8.1999999999999995e-01 6.3356727796097791e+00 8.5935383462990398e+00 2.9153061167139431e+00 1 2 -5
224 45 8 4.0999999999999998e-01 9.4701938727375250e+00 1.1955285050886344e+01 1.1351275171562261e+00 3 2 -7
175 29 7 -8.1999999999999995e-01 8.9893888203618264e+00 8.3174283528167194e+00 6.1691892128408812e+00 -7 -1 -3
284 65 8 4.0999999999999998e-01 7.3524612601320634e+00 9.4646417662220905e+00 3.0672363882954263e+00 1 -3 -4
174 28 8 4.0999999999999998e-01 5.7545077225202146e+00 9.2570427498546319e+00 2.4065447784368774e+00 1 2 -5
136 18 6 -5.8799999999999997e-01 5.9136031861400813e+00 1.2252976997808450e+01 5.8940702503960996e+00 -1 0 0
144 18 3 -1.3800000000000001e-01 5.5379252616005674e+00 8.9455811408092671e+00 6.1993315574241112e+00 -1 0 0
134 18 2 -4.6100000000000002e-01 7.9460443285836364e+00 1.3445520287606074e+01 4.5333066006424900e+00 -1 0 0
287 66 8 4.0999999999999998e-01 8.7902220736246814e+00 1.3870774997560037e+01 2.7501533088188674e+00 2 0 3
288 66 8 4.0999999999999998e-01 8.1715099289278488e+00 1.3676990164791212e+01 1.2956456837132575e+00 2 0 3
133 18 5 9.1100000000000003e-01 7.5628259613482074e+00 1.2752796548062973e+01 5.8453377178990706e+00 -1 0 0
130 18 2 -4.6100000000000002e-01 8.3204233576284246e+00 1.1492294260575958e+01 6.0174025772782809e+00 -1 0 0
286 66 7 -8.1999999999999995e-01 9.0168080447055701e+00 1.3931341218712623e+01 1.7468047190090465e+00 2 0 3
7 7 1 8.0000000000000004e-01 9.2031624886352770e+00 9.9042346945124695e+00 4.9684062666532158e+00 -4 -1 3
129 17 3 -1.3800000000000001e-01 6.3874835922055100e+00 1.3063182161070420e+01 7.3991642110719291e-01 1 -1 1
283 65 7 -8.1999999999999995e-01 8.1246220525346349e+00 1.0226631631363244e+01 3.2657119077140173e+00 1 -3 -4
285 65 8 4.0999999999999998e-01 8.5575169967544245e+00 1.0489797433792951e+01 2.3779268192468450e+00 1 -3 -4
135 18 3 -1.3800000000000001e-01 7.5883346084668570e+00 1.4929442773848697e+01 7.3820904396506668e+00 -1 0 0
132 18 4 3.1900000000000001e-01 8.2772110511358434e+00 1.3716580607260415e+01 7.2135658571501127e+00 -1 0 0
138 18 3 -1.3800000000000001e-01 9.5171621225165985e+00 1.3821476898761986e+01 7.0112886207933638e+00 -1 0 0
121 17 6 -5.8799999999999997e-01 5.5272492557560620e+00 1.5660909573906604e+01 1.8585189544611562e+00 1 -1 1
223 45 7 -8.1999999999999995e-01 8.9125334000821486e+00 1.1246528992809196e+01 6.2235314609683889e-01 3 2 -7
176 29 8 4.0999999999999998e-01 8.0472868173748324e+00 8.4385596987585636e+00 6.5564548631825224e+00 -7 -1 -3
218 43 8 4.0999999999999998e-01 9.7658739150295926e+00 7.8981195190929530e+00 3.5118244708179698e+00 7 -1 -1
254 55 8 4.0999999999999998e-01 5.4284301512959017e+00 1.5691312898720556e+01 5.5981222718910040e+00 -3 -5 0
36 11 3 -1.3800000000000001e-01 1.4609479022060361e+01 9.8503470184853228e+00 3.8774048841731085e-01 -2 2 0
183 31 8 4.0999999999999998e-01 1.5775413446142164e+01 1.4889641233244493e+01 7.1545733989982256e+00 -3 -6 2
221 44 8 4.0999999999999998e-01 1.2385470775208233e+01 1.2666564395323798e+01 4.1193758335402046e+00 0 -2 -7
29 11 2 -4.6100000000000002e-01 1.5582133429048472e+01 1.4886661614823238e+01 1.7158099991469553e+00 -2 2 0
33 11 3 -1.3800000000000001e-01 1.2310901938052972e+01 1.2899849069369781e+01 1.0054350431442574e+00 -2 2 0
147 19 8 4.0999999999999998e-01 1.1818376597125894e+01 1.0672853764044557e+01 4.4430989821882880e+00 -2 2 4
220 44 7 -8.1999999999999995e-01 1.2507165072424085e+01 1.1907547422669190e+01 4.7791635338246445e+00 0 -2 -7
25 11 2 -4.6100000000000002e-01 1.3638600530616266e+01 1.4432194727071826e+01 3.3742980732032404e+00 -2 2 0
262 58 7 -8.1999999999999995e-01 1.5507782222200765e+01 1.3183602982865036e+01 5.4563515283478523e+00 -1 3 8
27 11 4 3.1900000000000001e-01 1.3086779159707312e+01 1.4028860231906020e+01 8.8280250190756238e-01 -2 2 0
263 58 8 4.0999999999999998e-01 1.4829614572578787e+01 1.3136806109121212e+01 4.6939638411252238e+00 -1 3 8
31 11 6 -5.8799999999999997e-01 1.4988515241655717e+01 1.2577865403604150e+01 2.4016080081950473e+00 -2 2 0
229 47 7 -8.1999999999999995e-01 1.2975077698697149e+01 1.3029170293772095e+01 7.3958774971254639e+00 -7 4 1
146 19 8 4.0999999999999998e-01 1.1774460855485497e+01 9.0726903413705386e+00 5.0052615386887958e+00 -2 2 4
145 19 7 -8.1999999999999995e-01 1.1271676008257346e+01 9.7410033453268081e+00 4.4619072011479188e+00 -2 2 4
30 11 3 -1.3800000000000001e-01 1.2202829654064900e+01 1.5119548357552688e+01 1.0009526698531444e+00 -2 2 0
264 58 8 4.0999999999999998e-01 1.5110234913044614e+01 1.2741988375501743e+01 6.2688309529379298e+00 -1 3 8
28 11 5 9.1100000000000003e-01 1.4371937133380804e+01 1.4115561794838779e+01 2.1527511024618713e+00 -2 2 0
171 27 8 4.0999999999999998e-01 1.2284484710279992e+01 1.5722777192092943e+01 3.7602585187265993e+00 0 -4 -3
222 44 8 4.0999999999999998e-01 1.2673988525492387e+01 1.2368106161168855e+01 5.6475372150918179e+00 0 -2 -7
81 14 3 -1.3800000000000001e-01 1.2674338252061553e+01 1.0190405845565863e+01 7.7625236451637658e+00 -2 1 -3
181 31 7 -8.1999999999999995e-01 1.5342366227284558e+01 1.5727635998616291e+01 6.8200967148788614e+00 -3 -6 2
170 27 8 4.0999999999999998e-01 1.0662320937691746e+01 1.5717287706738647e+01 4.2119454452425966e+00 0 -4 -3
195 35 8 4.0999999999999998e-01 1.2915198387749214e+01 8.1038068643335865e+00 2.2178032247276649e+00 0 2 -5
294 68 8 4.0999999999999998e-01 1.2307216891061504e+01 1.5362742855349113e+01 7.8358340641997657e+00 1 -11 0
46 12 6 -5.8799999999999997e-01 3.7055342116896828e+00 1.3528312092667841e+01 1.2360587330982685e+01 0 0 1
45 12 3 -1.3800000000000001e-01 2.0990334731990794e+00 9.9205616913195840e+00 1.1235879934788182e+01 0 0 1
44 12 2 -4.6100000000000002e-01 1.9452704098814400e+00 1.2928092691958955e+01 1.0519464202662785e+01 0 0 1
42 12 4 3.1900000000000001e-01 3.0184326850724790e+00 1.0781892551645917e+01 1.1679020475559856e+01 0 0 1
41 12 3 -1.3800000000000001e-01 4.0780093105504411e+00 1.0712330031142459e+01 1.0786061357155830e+01 0 0 1
48 12 3 -1.3800000000000001e-01 3.5476403414565647e+00 1.0330981486295901e+01 1.2840416459317444e+01 0 0 1
43 12 5 9.1100000000000003e-01 2.4384868536827931e+00 1.2465827940238363e+01 1.1796161284363151e+01 0 0 1
40 12 2 -4.6100000000000002e-01 1.3870758702168766e+00 1.2402252709778589e+01 1.2797266746484455e+01 0 0 1
272 61 8 4.0999999999999998e-01 2.3164742926628792e+00 1.3939811040063795e+01 1.3901882705272197e+01 -1 -1 3
271 61 7 -8.1999999999999995e-01 1.8646570271796368e+00 1.4772037280151704e+01 1.4244109776398135e+01 -1 -1 3
273 61 8 4.0999999999999998e-01 1.0144993485412819e+00 1.4353707315212718e+01 1.4556136318512360e+01 -1 -1 3
226 46 7 -8.1999999999999995e-01 1.7859822422336979e-02 1.2309517464321793e+01 8.1966580201481634e+00 6 2 6
126 17 3 -1.3800000000000001e-01 4.4963951336331736e+00 1.2754395609734949e+01 1.5721928943660570e+01 1 -1 0
49 12 5 9.1100000000000003e-01 4.1018580393587865e+00 1.5093377376785787e+01 1.1689146747920679e+01 0 0 1
203 38 8 4.0999999999999998e-01 1.6773317815233162e+00 1.4252738814431774e+01 9.4606093983419246e+00 5 -7 4
202 38 7 -8.1999999999999995e-01 9.2454111631319724e-01 1.4703185627172108e+01 8.9950559801590799e+00 5 -7 4
204 38 8 4.0999999999999998e-01 3.5249743165253816e-01 1.3843548758842497e+01 8.7875397967798055e+00 5 -7 4
47 12 2 -4.6100000000000002e-01 2.9722760497720553e+00 1.5383017866395786e+01 1.0863894577261648e+01 0 0 1
32 11 2 -4.6100000000000002e-01 1.9104769434902632e-02 1.2594868663235566e+01 1.5710335988847003e+01 -1 2 -1
101 16 3 -1.3800000000000001e-01 1.0249766745112471e+01 9.3798774358450512e+00 1.3954648500699012e+01 1 -1 -1
131 18 3 -1.3800000000000001e-01 8.1510500335392049e+00 1.3040598474361671e+01 8.2984304197695735e+00 -1 0 0
279 63 8 4.0999999999999998e-01 9.0158641557507995e+00 1.1152111961723358e+01 1.0013764375417409e+01 -2 -5 -8
53 12 4 3.1900000000000001e-01 5.5040589511288607e+00 1.4986028441879153e+01 1.0634600719454431e+01 0 0 1
278 63 8 4.0999999999999998e-01 7.7966074642222489e+00 1.0509402107003988e+01 9.0120430780838525e+00 -2 -5 -8
274 62 7 -8.1999999999999995e-01 7.8901159984211668e+00 1.2597924211007825e+01 1.3484996604868424e+01 1 -2 4
214 42 7 -8.1999999999999995e-01 1.0278829643057120e+01 1.3842526801201259e+01 1.4478013753508955e+01 -4 -4 -1
52 12 3 -1.3800000000000001e-01 5.3401206181785836e+00 1.3971719512584579e+01 9.7991511648512244e+00 0 0 1
275 62 8 4.0999999999999998e-01 8.2769707188436694e+00 1.2025469566893163e+01 1.2755957690627678e+01 1 -2 4
277 63 7 -8.1999999999999995e-01 8.6778173262070197e+00 1.0256769686096344e+01 9.5950961485243695e+00 -2 -5 -8
20 10 2 -4.6100000000000002e-01 9.3838499179634027e+00 1.2451214410386905e+01 1.1189870393415889e+01 -1 -1 -2
290 67 8 4.0999999999999998e-01 8.8798254605835467e+00 8.5249947046755477e+00 9.9672797770896775e+00 2 3 7
54 12 3 -1.3800000000000001e-01 6.5838527633062327e+00 1.4904483009776731e+01 1.1368162055990231e+01 0 0 1
22 10 3 -1.3800000000000001e-01 9.6538504654123081e+00 1.5312552064672362e+01 9.9455029423828947e+00 -1 -1 -2
207 39 8 4.0999999999999998e-01 7.5111781398471784e+00 1.4258776920874867e+01 1.4171377639817930e+01 -5 -2 -2
216 42 8 4.0999999999999998e-01 9.5086279979660269e+00 1.3413511278561685e+01 1.4087918685291068e+01 -4 -4 -1
205 39 7 -8.1999999999999995e-01 7.5352668465811394e+00 1.5056272602670857e+01 1.4846773190061750e+01 -5 -2 -2
105 16 3 -1.3800000000000001e-01 8.8538932194685902e+00 8.3213950248009745e+00 1.5339819710235441e+01 1 -1 -1
137 18 2 -4.6100000000000002e-01 6.4712418281608626e+00 1.0946077855818743e+01 8.1315880943916046e+00 -1 0 0
276 62 8 4.0999999999999998e-01 6.9610512073412742e+00 1.2124495987260550e+01 1.3594088536881932e+01 1 -2 4
102 16 4 3.1900000000000001e-01 9.7434100490610422e+00 8.1567635645534597e+00 1.4267935934898752e+01 1 -1 -1