variable        infile index data.mol
variable        mytemp index 373

# set up simulation
#read_restart    ${NAME}.restart.*

# the following information is saved to restart files
units           real
atom_style      full
boundary        p p p
pair_style      lj/cut/coul/long 7
kspace_style    pppm 0.0001
pair_modify     tail yes
pair_modify     mix arithmetic
special_bonds   amber

bond_style      harmonic
angle_style     harmonic
dihedral_style  charmm
#improper_style  cvff

read_data       ${infile}
read_data       data.mol
  orthogonal box = (0 0 0) to (15.7932 15.7932 15.7932)
  1 by 2 by 2 MPI processor grid
  reading atoms ...
  294 atoms
  reading velocities ...
  294 velocities
  scanning bonds ...
  4 = max bonds/atom
  scanning angles ...
  6 = max angles/atom
  scanning dihedrals ...
  12 = max dihedrals/atom
  reading bonds ...
  226 bonds
  reading angles ...
  275 angles
  reading dihedrals ...
  270 dihedrals
  4 = max # of 1-2 neighbors
  6 = max # of 1-3 neighbors
  12 = max # of 1-4 neighbors
  14 = max # of special neighbors
  special bonds CPU = 0.000548264 secs
  read_data CPU = 0.0128472 secs

#replicate       3 4 4

neighbor        2.0 bin
neigh_modify    delay 0 every 1 check yes page 1000000 one 20000
timestep        1.0
#velocity        all create ${mytemp} 314159265 mom yes rot yes dist gaussian

## end information that is saved to restart files

## create velocity profile
#minimize       1e-4 1e-6 10000 10000
#velocity        all create  ${mytemp} 314159265 units box
velocity        all zero linear units box
dump            DUMP all custom 1000 ${NAME}.lammpstrj id type x y z mol
dump            DUMP all custom 1000 mol.lammpstrj id type x y z mol
thermo_style    custom step vol temp press ke pe etotal enthalpy evdwl ecoul epair ebond eangle edihed eimp emol elong etail lx ly lz xy xz yz pxy pxz pyz pxx pyy pzz
thermo          1000
#
## thermostat and integrator

#fix             NPT all npt temp ${mytemp} ${mytemp} 100.0 iso 1.0 1.0 100.0
fix             NVT all nvt temp ${mytemp} ${mytemp} 100.0
fix             NVT all nvt temp 373 ${mytemp} 100.0
fix             NVT all nvt temp 373 373 100.0

restart         50000 restart.${NAME}.1 restart.${NAME}.2
restart         50000 restart.mol.1 restart.${NAME}.2
restart         50000 restart.mol.1 restart.mol.2
run             10000000
PPPM initialization ...
  using 12-bit tables for long-range coulomb (src/kspace.cpp:332)
  G vector (1/distance) = 0.3803
  grid = 12 12 12
  stencil order = 5
  estimated absolute RMS force accuracy = 0.0233741
  estimated relative force accuracy = 7.03904e-05
  using double precision KISS FFT
  3d grid and FFT values/proc = 3211 432
Neighbor list info ...
  update every 1 steps, delay 0 steps, check yes
  max neighbors/atom: 20000, page size: 1000000
  master list distance cutoff = 9
  ghost atom cutoff = 9
  binsize = 4.5, bins = 4 4 4
  1 neighbor lists, perpetual/occasional/extra = 1 0 0
  (1) pair lj/cut/coul/long, perpetual
      attributes: half, newton on
      pair build: half/bin/newton
      stencil: half/bin/3d/newton
      bin: standard
Per MPI rank memory allocation (min/avg/max) = 17.92 | 17.93 | 17.93 Mbytes
Step Volume Temp Press KinEng PotEng TotEng Enthalpy E_vdwl E_coul E_pair E_bond E_angle E_dihed E_impro E_mol E_long E_tail Lx Ly Lz Xy Xz Yz Pxy Pxz Pyz Pxx Pyy Pzz 
       0    3939.2215    344.56462   -129.53753    300.93494   -616.67655   -315.74162   -323.18348    20.297856    4702.2612   -1273.2991    109.40027    150.89463    396.32763            0    656.62253   -5995.8582   -31.145075      15.7932      15.7932      15.7932            0            0            0   -7779.7062    1990.5128    664.53878   -1217.0528   -3770.9596    4599.3998 
    1000    3939.2215    396.59701    2429.0884    346.37884   -608.57054    -262.1917   -122.64178  -0.61887897    4739.5416   -1253.1134    106.59644    141.80322    396.14319            0    644.54285   -5992.0361   -31.145075      15.7932      15.7932      15.7932            0            0            0   -1354.1807   -1300.1857    159.00779    3852.1599    6271.9289   -2836.8237 
    2000    3939.2215     372.2313    2430.0989    325.09838   -574.80037   -249.70199   -110.09401   -23.744059    4805.5206    -1217.534    109.73166    131.54835    401.45362            0    642.73362   -5999.3105   -31.145075      15.7932      15.7932      15.7932            0            0            0    4048.0441    755.36246    2443.6769   -3057.8389    7801.9981    2546.1375 
    3000    3939.2215    363.58486   -2873.6653    317.54678   -608.43017   -290.88339   -455.97404   -27.093144    4761.7165   -1255.0659    104.12906    139.57339    402.93331            0    646.63576   -5989.6892   -31.145075      15.7932      15.7932      15.7932            0            0            0   -1046.8525    543.30775   -1641.5521   -3205.5906   -3077.6397   -2337.7657 
    4000    3939.2215    330.85666    2398.2943    288.96271   -618.89671     -329.934   -192.15317    19.529161     4726.061   -1249.7344    100.41494    126.89511    403.52759            0    630.83764   -5995.3245   -31.145075      15.7932      15.7932      15.7932            0            0            0    824.93898    1963.0158   -882.00862    2070.3965   -4351.6047    9476.0912 
    5000    3939.2215    378.00648   -126.77906     330.1423   -631.48267   -301.34037   -308.62376    8.7269175    4718.8301   -1270.0884     103.2645     131.6059    403.73531            0    638.60571   -5997.6454   -31.145075      15.7932      15.7932      15.7932            0            0            0   -2832.7129    552.96397    -80.54492     2998.347   -2063.3626   -1315.3215 
    6000    3939.2215    378.43622    1796.6226    330.51762    -602.5342   -272.01658    -168.8015    33.353762    4713.7758   -1248.4737    124.57687    115.54444    405.81819            0     645.9395   -5995.6033   -31.145075      15.7932      15.7932      15.7932            0            0            0   -1546.6551    4613.4581   -5821.6475     413.3415   -1384.0996     6360.626 
    7000    3939.2215    378.13898   -1510.9885    330.25802   -617.15465   -286.89663   -373.70217    6.4447721    4739.8149   -1246.9453    103.78503    121.75435    404.25129            0    629.79067    -5993.205   -31.145075      15.7932      15.7932      15.7932            0            0            0   -6697.2986   -4574.1237   -931.29677   -695.46431    348.77584   -4186.2769 
    8000    3939.2215    400.86883    5567.6608    350.10975   -622.88861   -272.77886    47.080501   -6.4243114    4739.1965   -1263.1283     95.36593    139.67472    405.19901            0    640.23966   -5995.9005   -31.145075      15.7932      15.7932      15.7932            0            0            0    271.76836    -2673.591   -1157.6576    7828.3879    1362.2828    7512.3119 
    9000    3939.2215     389.0658    4421.8036    339.80125   -608.54465   -268.74339   -14.712964   -1.0153075    4750.8107   -1249.1775    115.63389    120.15793    404.84105            0    640.63287   -5998.9729   -31.145075      15.7932      15.7932      15.7932            0            0            0   -4591.9438   -450.14722    1005.3126    8126.1799    4324.5746    814.65621 
   10000    3939.2215    402.60812    355.41204    351.62881   -616.98074   -265.35193   -244.93369    -15.85836    4750.1853   -1262.5312    97.984957    152.42789     395.1376            0    645.55045   -5996.8582   -31.145075      15.7932      15.7932      15.7932            0            0            0   -2473.7384     5106.726    793.24975    6056.1629   -5151.2658    161.33902 
   11000    3939.2215    371.68933   -1357.6569    324.62504   -601.56762   -276.94258    -354.9393   -3.7793122    4735.8679    -1262.843    114.71178    144.24607    402.31751            0    661.27535   -5994.9316   -31.145075      15.7932      15.7932      15.7932            0            0            0   -2039.4136   -6403.1176    -6044.356     41.46289   -686.81478   -3427.6189 
   12000    3939.2215    385.15998     1539.483       336.39    -607.2661   -270.87609   -182.43355    21.366828    4706.4351   -1267.0522    115.78423    144.98117    399.02071            0    659.78611   -5994.8542   -31.145075      15.7932      15.7932      15.7932            0            0            0    4129.6269    2946.4534    4717.7148    3960.8481    1624.2419   -966.64102 
   13000    3939.2215    385.07869   -3548.3534    336.31901   -604.71402   -268.39501   -472.24616    2.7305767    4729.9917   -1257.7067    123.10996    127.16535    402.71733            0    652.99264   -5990.4289   -31.145075      15.7932      15.7932      15.7932            0            0            0    414.02265    -1373.919   -1319.6088   -5747.7734   -2676.3179    -2220.969 
   14000    3939.2215    382.91554    909.93899    334.42976   -623.12265   -288.69289   -236.41734    12.607863    4731.8854   -1249.3604    101.96801    126.16904    398.10069            0    626.23774   -5993.8536   -31.145075      15.7932      15.7932      15.7932            0            0            0    822.23489    1837.0744    2984.8476      2448.82   -1627.3908    1908.3878 
   15000    3939.2215    358.82113   -489.78582    313.38625   -639.72547   -326.33922   -354.47718   -13.647382    4759.7201   -1251.4146    98.853517    116.70043    396.13516            0    611.68911   -5997.4873   -31.145075      15.7932      15.7932      15.7932            0            0            0    3563.8925   -2826.1048    640.74454   -593.74884   -2384.8743    1509.2657 
   16000    3939.2215    374.59017   -4228.2575    327.15857   -633.17374   -306.01517   -548.92647   -11.754405    4733.3984   -1271.1133    97.875113    142.74933    397.31509            0    637.93954   -5992.7573   -31.145075      15.7932      15.7932      15.7932            0            0            0    1318.3789   -3263.7766    1514.3638   -4615.4785   -6401.2623   -1668.0317 
   17000    3939.2215    363.30037   -3738.7546    317.29831   -621.87809   -304.57978   -519.36938   -5.9846858     4744.668   -1254.1226    103.11908    134.00709    395.11831            0    632.24448   -5992.8059   -31.145075      15.7932      15.7932      15.7932            0            0            0   -1153.7705    -77.23094   -2011.5374   -2621.5253   -2572.2399   -6022.4985 
   18000    3939.2215    365.00525   -1567.7084    318.78732   -595.89999   -277.11268   -367.17675    8.9367967    4719.6473   -1268.2495    117.52628    148.28586    406.53736            0     672.3495   -5996.8336   -31.145075      15.7932      15.7932      15.7932            0            0            0   -3936.5528   -2956.0385   -2807.2003     330.5148    32.204277   -5065.8442 
   19000    3939.2215    361.39033   -2670.9909    315.63013   -605.87095   -290.24082   -443.68793    3.8116713    4728.4705   -1259.9637    108.40353     142.5522      403.137            0    654.09273   -5992.2458   -31.145075      15.7932      15.7932      15.7932            0            0            0    183.17086   -1494.8092   -1804.1511   -5644.6569    1254.0304   -3622.3463 
   20000    3939.2215    355.16197    1864.0535    310.19042   -626.65443   -316.46401   -209.37506    9.8808612    4716.1137   -1268.1251    100.96502    144.15951    396.34612            0    641.47066   -5994.1197   -31.145075      15.7932      15.7932      15.7932            0            0            0    4147.9962    252.05603     2056.375    589.25481    343.58274    4659.3231 
   21000    3939.2215    343.01386   -1860.0842    299.58054    -629.3419   -329.76137   -436.62229    18.312566    4690.1612   -1287.1285    102.32978    156.39906    399.05773            0    657.78657   -5995.6023   -31.145075      15.7932      15.7932      15.7932            0            0            0   -2469.7308    2353.2746   -1869.7927   -1531.9692   -2353.5974   -1694.6859 
   22000    3939.2215     397.4347    2145.8197    347.11046   -597.78806    -250.6776   -127.40132     30.57336    4732.7144   -1232.0853    103.63639    134.71559    395.94522            0     634.2972    -5995.373   -31.145075      15.7932      15.7932      15.7932            0            0            0   -1928.1582    592.13153    2032.8711   -1401.6043    3310.5671    4528.4964 
   23000    3939.2215    379.27977   -143.59479    331.25436   -616.15919   -284.90483   -293.15428   -19.750753    4759.8111    -1256.131    121.00378     116.4668    402.50126            0    639.97184   -5996.1914   -31.145075      15.7932      15.7932      15.7932            0            0            0      2455.37    242.19416    867.06447    3889.7681    -4573.595    253.04254 
   24000    3939.2215    371.70504   -4312.9801    324.63876   -590.10705   -265.46829   -513.24686    8.8758332    4747.4895   -1239.1932    128.87655    120.58736    399.62226            0    649.08617   -5995.5585   -31.145075      15.7932      15.7932      15.7932            0            0            0    2770.7618   -4219.7943   -622.76971     372.3871   -8808.5924   -4502.7349 
   25000    3939.2215     353.5689    3513.1625    308.79907   -611.38254   -302.58347   -100.75402     58.19879    4670.2414   -1264.0476    119.62537    126.74984     406.2899            0    652.66511   -5992.4879   -31.145075      15.7932      15.7932      15.7932            0            0            0   -1829.1091   -4355.2966    327.79721    3883.9238    5277.8351    1377.7286 
   26000    3939.2215    359.63645    3553.5084    314.09833   -621.47449   -307.37616   -103.22886    40.697608    4676.2195   -1282.1142    115.55056    143.25215    401.83697            0    660.63967   -5999.0313   -31.145075      15.7932      15.7932      15.7932            0            0            0   -5740.5474    2235.9275   -1847.7739    5501.9408    6776.5527   -1617.9684 
   27000    3939.2215    385.16211    591.98595    336.39186   -597.21981   -260.82795   -226.81865   -13.849808    4755.0572   -1254.4136    100.12417    160.20192    396.86772            0     657.1938   -5995.6211   -31.145075      15.7932      15.7932      15.7932            0            0            0   -1769.5583    7513.6677   -1197.0137   -1724.5598    2259.7882    1240.7294 
   28000    3939.2215    417.02348   -4083.7093    364.21886   -649.66281   -285.44395   -520.05103    16.885309     4689.058   -1293.0225    119.51472    125.57208    398.27286            0    643.35965   -5998.9658   -31.145075      15.7932      15.7932      15.7932            0            0            0   -5118.9651    3244.4042   -165.43646    86.115752    -3094.225   -9243.0186 
   29000    3939.2215    357.89769   -6285.2824    312.57974   -623.68676   -311.10702   -672.19339   -1.7837658    4714.3273   -1284.8387    117.78196     146.7931    396.57683            0     661.1519   -5997.3822   -31.145075      15.7932      15.7932      15.7932            0            0            0    2202.7913     2526.873     6986.378   -4996.2091   -7088.4456   -6771.1925 
   30000    3939.2215    378.57375   -2547.4959    330.63773   -613.69071   -283.05298   -429.40536    6.9348004    4694.9058   -1288.5257    107.09664    159.09359    408.64479            0    674.83502   -5990.3663   -31.145075      15.7932      15.7932      15.7932            0            0            0    120.61609    484.43084   -1801.7627   -988.34855   -2767.1361   -3887.0029 
   31000    3939.2215    342.97711    2455.9331    299.54843    -607.4787   -307.93027   -166.83813   -5.1214158    4765.0621   -1234.6356    97.475859    130.35764    399.32337            0    627.15687   -5994.5762   -31.145075      15.7932      15.7932      15.7932            0            0            0   -2522.2961    99.327753    2905.1298    4650.1895    1475.5544    1242.0554 
   32000    3939.2215    353.37307    4452.5876    308.62804   -590.29337   -281.66534   -25.866381    6.8748311    4736.9694   -1250.2456    110.27654    150.51291     399.1628            0    659.95224   -5994.0898   -31.145075      15.7932      15.7932      15.7932            0            0            0    -135.1736   -216.98477    -7001.792    4747.0243    3664.2082    4946.5303 
   33000    3939.2215    358.84647    1421.0375    313.40837   -630.09725   -316.68888   -235.05098   -19.773702    4751.0444   -1265.0598    110.98805    116.49801    407.47648            0    634.96254   -5996.3305   -31.145075      15.7932      15.7932      15.7932            0            0            0   -3653.3782    3549.1819   -3472.7008    6377.4333   -7503.3959     5389.075 
   34000    3939.2215    399.67591   -932.18517    349.06789   -602.90108   -253.83319   -307.38676    5.3665011    4711.4631   -1276.8881    113.54506    157.32279    403.11915            0    673.98701   -5993.7177   -31.145075      15.7932      15.7932      15.7932            0            0            0    532.36021    2689.7806   -3041.8427   -290.01467    -2204.916   -301.62485 
   35000    3939.2215    386.63581   -2536.1562    337.67896   -640.04227   -302.36331   -448.06423   -8.0428972     4736.611   -1265.2342    99.935267    126.19654    399.06017            0    625.19197   -5993.8023   -31.145075      15.7932      15.7932      15.7932            0            0            0    616.72871   -1980.6677   -851.02966   -2911.0249   -3452.2219   -1245.2218 
   36000    3939.2215    393.95803   -1064.2907    344.07402   -641.15083   -297.07681   -358.21978    0.3160074    4719.4313   -1275.8289    89.481466    144.83387    400.36272            0    634.67805   -5995.5762   -31.145075      15.7932      15.7932      15.7932            0            0            0   -2242.3319    539.67125    2710.8861    15.463098   -5502.0497    2293.7146 
   37000    3939.2215    373.49291   -2149.1845    326.20025   -645.35031   -319.15007   -442.61965    34.460508     4677.721   -1284.2086    115.87622    120.79751    402.18459            0    638.85832   -5996.3901   -31.145075      15.7932      15.7932      15.7932            0            0            0    3329.7095   -1196.6492    142.41124   -6877.4902   -58.233171    488.16987 
   38000    3939.2215    392.16883    4137.5386    342.51137   -609.18426   -266.67289    -28.97334   -4.4141835    4762.3234   -1239.7231     102.5798     122.3218    405.63724            0    630.53884   -5997.6323   -31.145075      15.7932      15.7932      15.7932            0            0            0     4898.737   -6350.0487   -905.96755    1575.2322    1662.4778    9174.9059 
   39000    3939.2215     373.4448   -1738.5106    326.15822   -618.04669   -291.88846   -391.76503   -22.667808    4769.8087   -1251.2625    93.242548    138.57683    401.39642            0    633.21579   -5998.4034   -31.145075      15.7932      15.7932      15.7932            0            0            0    1573.7325    4805.7958    641.96296    1407.4575    1942.7863   -8565.7755 
   40000    3939.2215    376.24178   -3597.6942    328.60105   -642.82689   -314.22584   -520.91159    10.610775    4701.2611    -1283.861    97.766142    141.99809    401.26989            0    641.03412   -5995.7329   -31.145075      15.7932      15.7932      15.7932            0            0            0    2400.2008   -2310.8116    2091.8846   -4498.0909   -3152.7391   -3142.2525 
   41000    3939.2215    355.23135    1545.9497    310.25101   -600.87042   -290.61941   -201.80536    18.770206    4703.8611   -1272.7509    112.46682    160.10934    399.30433            0    671.88049   -5995.3822   -31.145075      15.7932      15.7932      15.7932            0            0            0   -6174.8516   -3146.3633    3216.8695    303.45497   -2907.3438    7241.7381 
   42000    3939.2215    360.84706    2701.9995    315.15564   -621.50068   -306.34504    -151.1165     38.69268    4689.3705   -1268.0658    99.066128    141.23645     406.2625            0    646.56508   -5996.1289   -31.145075      15.7932      15.7932      15.7932            0            0            0   -5207.8532    1150.6719    68.882728    4840.0652     2961.108    304.82541 
   43000    3939.2215    388.81658   -5348.8518    339.58359   -627.27586   -287.69227   -594.98116    15.407343    4698.5505    -1283.913    118.10012    140.61455    397.92242            0     656.6371   -5997.8708   -31.145075      15.7932      15.7932      15.7932            0            0            0   -279.56625    2956.8765    428.95525   -2344.6602   -8555.6659   -5146.2294 
   44000    3939.2215    372.13823    -2029.676     325.0171   -576.63303   -251.61593   -368.21981   -12.693158    4781.6811   -1224.1052    113.14905    126.96968    407.35346            0    647.47219   -5993.0931   -31.145075      15.7932      15.7932      15.7932            0            0            0     2057.662   -425.76887    6326.0203     -1508.23   -4281.8306   -298.96742 
   45000    3939.2215    357.42281   -5606.4149    312.16499   -598.37133   -286.20635   -608.29211     -23.5024    4773.4802   -1244.6398    108.05038    136.24873    401.96935            0    646.26846   -5994.6176   -31.145075      15.7932      15.7932      15.7932            0            0            0    4624.5741    1094.9779    2072.7059   -5835.6048   -7798.9812   -3184.6587 
   46000    3939.2215    368.94913   -7922.8608    322.23181   -617.72743   -295.49562   -750.66005    2.8452113    4719.7378   -1272.4127    111.54079    143.57952    399.56498            0    654.68528   -5994.9957   -31.145075      15.7932      15.7932      15.7932            0            0            0   -198.43997   -3815.2663    1800.4614   -13217.866   -9598.8895   -951.82682 
   47000    3939.2215    357.49223    3627.2462    312.22561   -620.22107   -307.99546   -99.611958     34.46414    4690.2381   -1272.6851     96.25568     155.7551    400.45321            0    652.46399   -5997.3873   -31.145075      15.7932      15.7932      15.7932            0            0            0    3040.5324    974.77581   -790.23308    3706.4282     6640.946    534.36425 
   48000    3939.2215     379.4621   -594.54954    331.41361   -616.48454   -285.07093   -319.22751   -20.847679    4779.0879     -1238.13    99.165995    120.25366    402.22582            0    621.64548   -5996.3702   -31.145075      15.7932      15.7932      15.7932            0            0            0    3050.8512    2493.0898    1942.7391   -283.08236     1167.977   -2668.5433 
   49000    3939.2215    386.38403    4642.7203    337.45906   -588.33076    -250.8717    15.850282   -13.922657    4784.4096   -1222.1085    90.647185    146.93394    396.19658            0     633.7777   -5992.5954   -31.145075      15.7932      15.7932      15.7932            0            0            0   -986.32266    923.85815   -1964.7528    4578.2183    8111.8185     1238.124 
   50000    3939.2215    385.47514   -3247.1441    336.66525   -611.57851   -274.91326   -461.46009    1.6485208    4741.5462   -1257.6189    114.90857    124.09308    407.03872            0    646.04037   -6000.8136   -31.145075      15.7932      15.7932      15.7932            0            0            0   -3513.6027   -693.16022    3717.4813   -1622.3143   -2990.4315   -5128.6865 
   51000    3939.2215    358.67773    -1171.305      313.261   -622.90309   -309.64208   -376.93298    15.549748    4708.0195   -1276.6487    117.54569    133.48985    402.71011            0    653.74565    -6000.218   -31.145075      15.7932      15.7932      15.7932            0            0            0    1579.0695   -7.1807732   -1777.4731   -1206.7076   -1151.3718   -1155.8356 
   52000    3939.2215    365.02605   -453.44167    318.80548   -612.53337   -293.72789   -319.77789    26.984943    4709.2019   -1261.7326     122.4567    123.74631    402.99622            0    649.19923   -5997.9195   -31.145075      15.7932      15.7932      15.7932            0            0            0    3160.7115   -2403.7734    4748.6845    -4936.301    2777.3266    798.64937 
   53000    3939.2215    340.37654   -2439.1639    297.27716   -604.86168   -307.58452   -447.71328    19.438601    4744.5536   -1232.5999    110.18528    128.80588    388.74702            0    627.73818   -5996.5921   -31.145075      15.7932      15.7932      15.7932            0            0            0    894.09482   -2544.4603    2299.5605   -883.32299   -4481.4478   -1952.7209 
   54000    3939.2215    377.26688    4253.4901    329.49635   -628.61737   -299.12103   -54.760123    29.592491    4711.6211   -1251.4754     95.50157    124.41457    402.94185            0    622.85799   -5992.6889   -31.145075      15.7932      15.7932      15.7932            0            0            0    -1418.434    664.53576   -317.10206   -1848.4463    5198.2565    9410.6601 
   55000    3939.2215    355.35223    2319.7518    310.35658   -617.59039    -307.2338   -173.96521   -9.7851551    4762.8411   -1245.8409    93.138083    125.22892     409.8835            0     628.2505   -5998.8969   -31.145075      15.7932      15.7932      15.7932            0            0            0    2009.8635    2094.7123    2922.0608    2998.4085    3469.5929     491.2539 
   56000    3939.2215     379.9382   -2111.8653    331.82941   -634.66069   -302.83128   -424.15689    11.084508    4735.7656    -1251.469    91.765875    122.36911    402.67337            0    616.80835   -5998.3192   -31.145075      15.7932      15.7932      15.7932            0            0            0    856.99062    1856.6784   -373.50769   -3770.5418    1040.2221   -3605.2762 
   57000    3939.2215    364.36735    2872.0842    318.23019    -577.8108   -259.58061   -94.580795    7.1501876    4758.7584   -1228.6065    104.59968    154.92146    391.27454            0    650.79568   -5994.5151   -31.145075      15.7932      15.7932      15.7932            0            0            0   -1643.2922    3363.3486   -455.79231    2956.3156    1287.8986    4372.0384 
   58000    3939.2215    345.35911   -1633.6458    301.62882   -619.50914   -317.88032   -411.73247   -21.091337     4766.589   -1249.7737    97.311339    132.65356    400.29968            0    630.26458   -5995.2713   -31.145075      15.7932      15.7932      15.7932            0            0            0    2577.1595    2307.2673   -3517.7309   -1273.2797   -2496.3421   -1131.3157 
   59000    3939.2215    340.05232   -1540.1258    296.99399   -615.97788   -318.98389   -407.46336   -8.4353204    4736.7197   -1266.9664    111.73769    138.28949    400.96134            0    650.98851   -5995.2507   -31.145075      15.7932      15.7932      15.7932            0            0            0    1963.9285    1711.6917    4001.0826    160.30605   -5478.0155    697.33206 
   60000    3939.2215    371.03194   -93.965644    324.05089   -616.43184   -292.38095   -297.77923    13.625481    4714.8222   -1268.4588    106.74342    135.99905    409.28448            0    652.02696   -5996.9065   -31.145075      15.7932      15.7932      15.7932            0            0            0     1393.194    1632.8881   -823.41332   -2329.3332    275.60456    1771.8317 
   61000    3939.2215    363.80676    6028.6308    317.74058   -608.92961   -291.18903    55.152828    25.492126    4727.0923   -1241.9699    88.897764    138.65257    405.48995            0    633.04028   -5994.5543   -31.145075      15.7932      15.7932      15.7932            0            0            0   -302.23833     72.16496   -3940.8614    4678.4208    7582.5103    5824.9612 
   62000    3939.2215    376.92437    8275.7865     329.1972   -628.08022   -298.88302    176.55682    23.342443    4722.0861   -1252.0151    103.83374    117.89071    402.21046            0    623.93491   -5997.4437   -31.145075      15.7932      15.7932      15.7932            0            0            0    1266.7627   -541.27298    1927.3708    13252.147    5364.3007    6210.9118 
   63000    3939.2215    364.12042   -469.23162    318.01452   -565.02748   -247.01296   -273.97008   -3.2967856    4771.9149   -1229.1041     108.6639    141.69091     413.7218            0    664.07661   -5997.7222   -31.145075      15.7932      15.7932      15.7932            0            0            0    355.57202    1398.7497     2898.488   -2212.8731   -1279.8275    2085.0057 
   64000    3939.2215    378.72443    3456.5044    330.76934   -627.24262   -296.47328   -97.898809     19.70268    4710.6601   -1268.9006    109.64851    132.52883    399.48062            0    641.65796   -5999.2634   -31.145075      15.7932      15.7932      15.7932            0            0            0    2362.5694    351.37367   -2448.9693     8220.859    2175.5611   -26.906776 
   65000    3939.2215      358.382   -430.65447    313.00272   -631.49433    -318.4916   -343.23249     4.224068    4697.8079   -1291.9635    113.80414    139.80196    406.86307            0    660.46917   -5993.9955   -31.145075      15.7932      15.7932      15.7932            0            0            0    3080.2984    3083.0191    2608.5984    4735.9551   -2418.7425   -3609.1761 
   66000    3939.2215    375.70352    561.58962    328.13094    -596.8326   -268.70166   -236.43862    18.774267    4738.4016        -1231    123.01468    111.74323    399.40951            0    634.16742   -5988.1759   -31.145075      15.7932      15.7932      15.7932            0            0            0    1410.1893    4650.3213    -2500.282   -2382.9443    2970.8448    1096.8683 
   67000    3939.2215    373.61508   -2193.0584    326.30695   -595.91096   -269.60401   -395.59413     10.60557    4713.3607   -1268.0031    115.00766    153.02921    404.05524            0    672.09211   -5991.9694   -31.145075      15.7932      15.7932      15.7932            0            0            0    -5192.231    313.88989    -3891.238   -742.55418   -3328.9472   -2507.6737 
   68000    3939.2215    361.78909   -3521.2831     315.9784   -583.70247   -267.72407   -470.02004    5.0442147    4745.8453   -1241.1278    119.89628    136.29988    401.22913            0     657.4253   -5992.0173   -31.145075      15.7932      15.7932      15.7932            0            0            0   -3639.4202    1372.7116   -12515.953   -4231.5964    -5274.261   -1057.9918 
   69000    3939.2215    383.12106    1704.1033    334.60925     -608.476   -273.86674   -175.96685    10.378731    4740.6695   -1240.0604    92.027008    138.39133    401.16611            0    631.58445   -5991.1087   -31.145075      15.7932      15.7932      15.7932            0            0            0    -520.3515    592.44218   -1495.7343    5409.6121    1109.8479     -1407.15 
   70000    3939.2215    365.56802    527.10016    319.27882   -586.31452    -267.0357   -236.75406    28.847792    4721.1725   -1240.8219    106.97313    153.12821    394.40605            0    654.50739   -5990.8422   -31.145075      15.7932      15.7932      15.7932            0            0            0    462.90165    2111.0555    251.13365    1016.7095   -3350.9182    3915.5092 
   71000    3939.2215    358.32994    4497.7576    312.95725   -611.70674   -298.74949   -40.355542    19.687091    4728.8512    -1252.045    103.00324     140.2296    397.10537            0    640.33821   -6000.5833   -31.145075      15.7932      15.7932      15.7932            0            0            0    877.56355   -3828.1978    343.00288    4385.1286    4246.6588    4861.4853 
   72000    3939.2215    386.69796    3285.0005    337.73324    -622.8747   -285.14146    -96.41981    13.120588    4735.8852   -1246.5916    88.781239    131.59282    403.34288            0    623.71694   -5995.5975   -31.145075      15.7932      15.7932      15.7932            0            0            0    683.32799    4744.3937    897.13378    1133.8213    6675.2607    2045.9194 
   73000    3939.2215    378.22867   -287.16459    330.33635   -618.50566   -288.16931   -304.66677    11.934842     4743.634   -1245.9777     104.5149    115.72688    407.23028            0    627.47206   -6001.5466   -31.145075      15.7932      15.7932      15.7932            0            0            0    1915.6642    1005.6405   -390.87931    5075.2553   -5326.5677   -610.18143 
   74000    3939.2215    351.02452   -2712.4351    306.57687   -617.88363   -311.30676   -467.13482    3.0499674    4747.1954   -1246.7071    107.81509    115.28206    405.72635            0     628.8235   -5996.9525   -31.145075      15.7932      15.7932      15.7932            0            0            0    -959.6401     267.7564   -1952.0285   -1102.3839   -7623.2431     588.3217 
   75000    3939.2215    391.48116    1749.3707    341.91078   -595.90414   -253.99336   -153.49289    11.672568    4710.4789   -1273.9517    121.31696    151.70677    405.02385            0    678.04758   -5996.1031   -31.145075      15.7932      15.7932      15.7932            0            0            0   -2216.9592    606.15881    429.07675    1170.3465    4339.1271   -261.36169 
   76000    3939.2215    388.68605    3055.7146    339.46959   -610.94415   -271.47456    -95.92527    4.7211808    4751.3741   -1239.2382    94.890008     138.5169    394.88718            0    628.29409   -5995.3335   -31.145075      15.7932      15.7932      15.7932            0            0            0    1967.7925    2001.7656     2507.832    3873.6538    295.50815    4997.9818 
   77000    3939.2215    356.70903    3088.2445    311.54159   -595.22279    -283.6812   -106.26308    -5.108507    4744.9212   -1255.0357    113.06076    139.46332    407.28885            0    659.81293   -5994.8484   -31.145075      15.7932      15.7932      15.7932            0            0            0    210.47065    2372.5802     5904.388   -392.53088    6324.1321    3333.1323 
   78000    3939.2215    362.44042   -1182.9708    316.54725   -597.55865   -281.01139   -348.97248     28.82678    4722.3855   -1242.8121    102.33822    137.47635    405.43889            0    645.25346   -5994.0244   -31.145075      15.7932      15.7932      15.7932            0            0            0    1151.5636   -445.71658    894.34945   -2168.3037   -1874.9295    494.32094 
   79000    3939.2215     365.7943    1503.2785    319.47646   -627.79386    -308.3174   -221.95479    2.6998811    4719.8072   -1271.3641    103.94955    136.59452    403.02619            0    643.57025   -5993.8712   -31.145075      15.7932      15.7932      15.7932            0            0            0   -188.75401    2388.5893    1715.4583    3337.2833   -2051.7595    3224.3117 
   80000    3939.2215    373.98023   -1471.5516    326.62586   -598.77259   -272.14673   -356.68665    14.214147    4712.9839   -1270.1504    119.10959    149.10608    403.16218            0    671.37785   -5997.3485   -31.145075      15.7932      15.7932      15.7932            0            0            0    741.90485   -1151.5027   -1087.0622   -642.32936    -3458.762   -313.56337 
   81000    3939.2215    384.58235    821.80685    335.88551   -645.58327   -309.69776   -262.48536   -12.461731     4759.552   -1249.9423    86.328588    120.26099    397.76942            0    604.35901   -5997.0326   -31.145075      15.7932      15.7932      15.7932            0            0            0   -277.55734    1389.0804    547.09756    3739.0152   -2917.7458    1644.1512 
   82000    3939.2215    365.27958   -273.53287    319.02691   -619.52552   -300.49861   -316.21294    11.958528    4721.1943   -1260.6956    110.58781    129.51825    401.06402            0    641.17009   -5993.8484   -31.145075      15.7932      15.7932      15.7932            0            0            0    1826.2756    3142.8663   -3253.8104   -4168.3317   -579.75543    3927.4885 
   83000    3939.2215    365.95219    -2659.727    319.61435    -633.9035   -314.28915   -467.08915    19.192356    4705.9094   -1269.9083    103.25673    133.48386    399.26419            0    636.00478     -5995.01   -31.145075      15.7932      15.7932      15.7932            0            0            0   -480.03361    3634.9097   -2551.4671   -9228.8151   -2554.4671    3804.1012 
   84000    3939.2215    348.14039    2847.1213    304.05793   -599.69225   -295.63432   -132.06861   -7.7456471    4772.1959   -1226.2073    94.854014     133.2781    398.38299            0     626.5151   -5990.6576   -31.145075      15.7932      15.7932      15.7932            0            0            0   -1887.7011   -417.65737    1738.7912    1487.0273    4969.3929    2084.9438 
   85000    3939.2215    380.37637   -4696.8268    332.21211   -599.01705   -266.80494   -536.63532     -30.7582    4806.6302   -1217.1434    92.836127    120.47819    404.81207            0    618.12638   -5993.0154   -31.145075      15.7932      15.7932      15.7932            0            0            0   -1595.4696    8.7992677   -3754.7733   -4764.5016   -168.55788    -9157.421 
   86000    3939.2215    375.11231   -368.25762    327.61459   -616.20947   -288.59488    -309.7511   -11.554767    4742.9526   -1260.9344    101.61424    141.34687    401.76383            0    644.72494   -5992.3323   -31.145075      15.7932      15.7932      15.7932            0            0            0   -1388.3056    2212.7146    3305.1342   -4039.2792    2002.0808    932.42559 
   87000    3939.2215    352.69813    -842.9827    308.03855   -581.82947   -273.79092   -322.21986    18.110741    4761.0532   -1213.9689    106.09253    126.12534    399.92158            0    632.13946   -5993.1329   -31.145075      15.7932      15.7932      15.7932            0            0            0    4403.9912     590.6999    1118.1407   -1832.2796   -4210.1155     3513.447 
   88000    3939.2215    358.62864   -1609.7551    313.21813   -566.60108   -253.38296   -345.86259    1.2286152     4770.479   -1216.2514     119.1559    126.85563    403.63877            0     649.6503   -5987.9591   -31.145075      15.7932      15.7932      15.7932            0            0            0    -5874.653    -2168.762    6023.0141    2945.2749   -4787.8921   -2986.6481 
   89000    3939.2215    373.78762   -914.50611    326.45764   -624.10448   -297.64684   -350.18477   -7.3908915    4764.2527   -1239.7781    93.400903    116.42182    405.85092            0    615.67364   -5996.6399   -31.145075      15.7932      15.7932      15.7932            0            0            0    2469.9474   -8.7603367    465.71004    1281.6037   -4012.7465   -12.375522 
   90000    3939.2215    365.98433   -11.363506    319.64242   -605.36427   -285.72184   -286.37467   -20.384576    4771.6816   -1244.6814      104.213    128.71288    406.39122            0    639.31709   -5995.9783   -31.145075      15.7932      15.7932      15.7932            0            0            0    682.14801    2314.6939   -3597.2569    1241.3571   -70.599598    -1204.848 
   91000    3939.2215    373.96785       1873.9    326.61505   -585.60605     -258.991   -151.33637   -25.407898    4816.8897   -1206.4423    102.30223    118.55419    399.97983            0    620.83625   -5997.9241   -31.145075      15.7932      15.7932      15.7932            0            0            0    4988.8591    658.22079    286.52103    1061.5396    422.55429    4137.6061 
   92000    3939.2215    367.13017   -10583.667    320.64317   -596.13234   -275.48917   -883.51563   -7.6241538    4746.2221   -1252.7326     118.0706    133.40898    405.12065            0    656.60022   -5991.3306   -31.145075      15.7932      15.7932      15.7932            0            0            0   -2092.7967    2632.0314    2965.1155   -12716.694   -8452.5303   -10581.778 
   93000    3939.2215    385.34346     3582.665    336.55025   -628.96094   -292.41069   -86.588355    2.1385888    4733.2725    -1262.098    108.43418    121.47695    403.22589            0    633.13702    -5997.509   -31.145075      15.7932      15.7932      15.7932            0            0            0   -3229.3765   -1874.2826    6678.1367   -575.20887    6108.5919     5214.612 
   94000    3939.2215     377.8589    4200.1668     330.0134   -591.72704   -261.71364   -20.416136    14.293908    4766.4078   -1215.3451     102.4497    121.29941    399.86897            0    623.61808   -5996.0468   -31.145075      15.7932      15.7932      15.7932            0            0            0    1687.7611   -1350.9676    6892.6336    8280.9319    4612.8701   -293.30151 
   95000    3939.2215    413.86956     1247.862     361.4643   -586.56232   -225.09803   -153.40898    1.2068526    4790.6904   -1200.6921    106.73581    109.94389    397.45006            0    614.12976   -5992.5893   -31.145075      15.7932      15.7932      15.7932            0            0            0   -3121.4186   -2372.0318    3220.2094    2633.4187    4059.4963   -2949.3291 
   96000    3939.2215    349.42101    489.39286    305.17639   -602.09677   -296.92038   -268.80501    13.956381    4748.4521   -1234.4444    105.06507    135.26166    392.02089            0    632.34762   -5996.8529   -31.145075      15.7932      15.7932      15.7932            0            0            0   -233.71435    3071.4707    1458.7214   -4799.6925     2405.404    3862.4671 
   97000    3939.2215    362.89112     6726.361    316.94088   -627.05861   -310.11772    76.308389     17.43202    4731.1979     -1243.48    82.826464    131.03376    402.56113            0    616.42136   -5992.1099   -31.145075      15.7932      15.7932      15.7932            0            0            0    1308.3806   -1711.6736   -3801.2298    5211.2352    6348.8256    8619.0222 
   98000    3939.2215    366.44207   -511.10484     320.0422   -601.70634   -281.66414   -311.02686    13.644746    4732.8284   -1248.6213    106.58369    135.83432    404.49693            0    646.91494   -5995.0944   -31.145075      15.7932      15.7932      15.7932            0            0            0   -3641.3978   -4696.0855     4106.854   -4130.0025   -165.36517    2762.0531 
   99000    3939.2215    354.12659    2265.8414    309.28614   -610.13241   -300.84627    -170.6748    8.8653113    4734.1805   -1250.5736    96.946481    144.33495    399.15974            0    640.44117   -5993.6194   -31.145075      15.7932      15.7932      15.7932            0            0            0    3677.4285    881.17008   -74.099247    4983.9306   -940.70354    2754.2972 
  100000    3939.2215    361.34215    3402.7037    315.58804   -606.96956   -291.38152   -95.897872    31.745607    4699.1781    -1261.894    102.60667    149.55058    402.76719            0    654.92445   -5992.8177   -31.145075      15.7932      15.7932      15.7932            0            0            0    1780.7381    2176.5684    2670.9054    4470.6982    4540.5799    1196.8331 
  101000    3939.2215    392.65813    391.71221    342.93872   -611.23698   -268.29827   -245.79459     9.296463    4715.4824   -1268.3555    100.33062     150.1005    406.68742            0    657.11854   -5993.1344   -31.145075      15.7932      15.7932      15.7932            0            0            0    2163.2066   -966.94708    3944.6743   -530.26286    5382.8668   -3677.4673 
  102000    3939.2215    384.25438   -2406.1832    335.59907   -602.31868   -266.71961   -404.95364   0.41250649    4733.3145   -1260.1914    102.84812    153.49823     401.5264            0    657.87274   -5993.9185   -31.145075      15.7932      15.7932      15.7932            0            0            0   -3235.7628    5668.2709   -332.04618   -5703.5884   -1616.3793    101.41816 
  103000    3939.2215    359.14032    954.06615    313.66502   -604.47457   -290.80956   -235.99893    4.6542068    4743.7198   -1245.5447    104.46997    133.79118    402.80901            0    641.07015   -5993.9187   -31.145075      15.7932      15.7932      15.7932            0            0            0   -1420.0914    172.64895    2183.5686   -2942.1463    4714.4282    1089.9166 
  104000    3939.2215    355.35558   -1640.3439    310.35951   -613.15495   -302.79544   -397.03239    2.7635079    4718.3193   -1271.2123    105.28795    144.96401    407.80536            0    658.05732   -5992.2951   -31.145075      15.7932      15.7932      15.7932            0            0            0    553.42415   -1195.4527   -1249.0037   -3943.7936   -6019.2175    5041.9793 
  105000    3939.2215    359.18858   -2916.9102    313.70717   -627.55629   -313.84913   -481.42418   -0.9029571    4744.5013   -1251.2389    98.742877    127.42196     397.5178            0    623.68264   -5994.8373   -31.145075      15.7932      15.7932      15.7932            0            0            0    1661.1711    3808.8593   -208.70943   -1641.4175   -5211.4261    -1897.887 
  106000    3939.2215    345.67312    2532.2825    301.90307   -592.31814   -290.41507   -144.93669    20.973192    4750.2829   -1226.2113     102.5754    129.49331    401.82443            0    633.89314   -5997.4674   -31.145075      15.7932      15.7932      15.7932            0            0            0   -2445.9535    3086.3809    2278.2727    3273.8272   -993.97507    5316.9954 
  107000    3939.2215    382.60253    2470.2845    334.15638   -620.13805   -285.98166   -144.06504     13.91743    4738.1294   -1240.8153    82.144148    135.14151    403.39156            0    620.67722   -5992.8621   -31.145075      15.7932      15.7932      15.7932            0            0            0    1391.4721    4070.6206    2344.9954    1173.6339    635.98379    5601.2359 
  108000    3939.2215      392.122   -3517.1976    342.47047   -599.16409   -256.69362   -458.75488  -0.32021469    4749.3923   -1245.6185    113.95781    133.08781    399.40877            0    646.45439   -5994.6905   -31.145075      15.7932      15.7932      15.7932            0            0            0   -1396.1524    3128.2024   -2267.4944   -743.74998   -1986.3174   -7821.5256 
  109000    3939.2215    382.78282   -723.97093    334.31384   -598.13269   -263.81885   -305.41062   -19.111184    4761.9316   -1253.4006    103.21302    145.28413    406.77079            0    655.26794    -5996.221   -31.145075      15.7932      15.7932      15.7932            0            0            0    740.73348   -2856.4654   -966.52702   -475.63126   -1700.0575    3.7759388 
  110000    3939.2215    346.07534    2007.3825    302.25436   -616.85899   -314.60463   -199.28149    5.5679931    4732.3239   -1253.5044    97.542399    137.12097    401.98207            0    636.64544   -5991.3963   -31.145075      15.7932      15.7932      15.7932            0            0            0   -3003.9795    6075.1116    1054.9791    2418.6861    3049.8041    553.65723 
  111000    3939.2215    387.92894   -137.37725    338.80835   -611.02484   -272.21649   -280.10875    3.2794175    4750.7748   -1242.9046    106.61353    118.24019    407.02602            0    631.87974   -5996.9588   -31.145075      15.7932      15.7932      15.7932            0            0            0   -1108.6138   -1227.5365   -2003.2737    3593.0075   -7660.4704    3655.3311 
  112000    3939.2215    385.01751   -2988.4048    336.26557   -615.47367    -279.2081   -450.89048    4.6999075    4740.0072   -1245.6323    94.795184    133.57007    401.79341            0    630.15866   -5990.3395   -31.145075      15.7932      15.7932      15.7932            0            0            0   -1670.2517    5425.0977    1374.5606   -1622.4954   -3825.2945   -3517.4245 
  113000    3939.2215    386.79609    -3711.969    337.81894   -613.88952   -276.07058   -489.32137    -31.59908    4786.5125   -1237.0291    98.424416    121.49638    403.21875            0    623.13955   -5991.9425   -31.145075      15.7932      15.7932      15.7932            0            0            0   -484.25891   -3181.7718   -2019.7114   -4337.9725   -5120.4961   -1677.4384 
  114000    3939.2215    369.58723   -739.75741    322.78911   -616.51655   -293.72744   -336.22614     22.20291    4716.1366   -1256.9211    86.001182    149.13859    405.26472            0     640.4045   -5995.2605   -31.145075      15.7932      15.7932      15.7932            0            0            0     233.1431   -260.24108   -3387.7759   -116.82923    1421.4811   -3523.9241 
  115000    3939.2215    377.30962    403.96738    329.53367   -583.05518   -253.52151   -230.31378    12.049117    4755.3725   -1228.6308    114.25743    130.44461    400.87356            0     645.5756   -5996.0524   -31.145075      15.7932      15.7932      15.7932            0            0            0    943.29786   -5285.6096    1027.8024   -2956.1562    4275.5004   -107.44204 
  116000    3939.2215     360.8407     3923.105    315.15009   -617.62278   -302.47268   -77.092242     18.88797    4723.0659   -1251.2696    95.941549    136.35608    401.34924            0    633.64687   -5993.2235   -31.145075      15.7932      15.7932      15.7932            0            0            0    1837.0535    226.66805   -2722.5978    772.97471    70.252359    10926.088 
  117000    3939.2215    367.81573    231.73692    321.24192   -586.21771   -264.97579   -251.66262    24.533594    4736.2906   -1232.1328    93.965835    147.76563    404.18359            0    645.91505    -5992.957   -31.145075      15.7932      15.7932      15.7932            0            0            0   -206.87028    1773.5672   -136.81989    5871.2928    1699.5914   -6875.6734 
  118000    3939.2215    358.91291   -1277.4951     313.4664   -625.04435   -311.57795   -384.96942    13.938364    4714.6062   -1270.1567    98.842176    142.47832    403.79185            0    645.11234   -5998.7013   -31.145075      15.7932      15.7932      15.7932            0            0            0   -5953.3265    776.46719   -750.63334   -3224.2212    5897.8397   -6506.1038 
  119000    3939.2215    381.49411   -2625.6561    333.18831   -615.97662   -282.78831   -433.63095   -9.0453272    4758.5229   -1238.0281    95.647801    128.80031    397.60333            0    622.05145   -5987.5057   -31.145075      15.7932      15.7932      15.7932            0            0            0    2709.8511     2356.495   -264.22974   -2859.0144   -1379.5615   -3638.3924 
  120000    3939.2215    387.29357    2430.5369    338.25343   -573.06071   -234.80728   -95.174132    8.3821003    4759.8581   -1220.5218    104.91545    137.90468    404.64092            0    647.46105    -5988.762   -31.145075      15.7932      15.7932      15.7932            0            0            0   -3015.6994   -3529.2142   -3805.8797    4502.8909     178.2454    2610.4745 
  121000    3939.2215    355.19201    681.57265    310.21666   -616.35851   -306.14185   -266.98584   -4.8439888    4746.3931   -1251.5115    90.665655    138.52112    405.96618            0    635.15296   -5993.0606   -31.145075      15.7932      15.7932      15.7932            0            0            0    343.38009    277.05724    2846.4734    133.37136    1586.1524    325.19417 
  122000    3939.2215      387.147    392.31461    338.12541    -615.3472   -277.22178    -254.6835   -10.563793    4740.2374   -1260.8703    108.12157    135.60458    401.79692            0    645.52307   -5990.5438   -31.145075      15.7932      15.7932      15.7932            0            0            0    2237.3125   -90.394791   -2092.2384   -2840.9369    1207.8302    2810.0506 
  123000    3939.2215    368.49342    1726.2554    321.83381   -619.99729   -298.16348   -198.99097    1.2200748    4744.0554   -1248.5902    93.595964    138.97067    396.02629            0    628.59292   -5993.8657   -31.145075      15.7932      15.7932      15.7932            0            0            0    265.77569    2259.5478   -1536.2767    5826.5671    3829.8315   -4477.6324 
  124000    3939.2215      360.903   -3203.4989     315.2045   -602.35633   -287.15182   -471.19125    33.332572    4714.7672   -1243.7612    109.22087    136.84558    395.33842            0    641.40487    -5991.861   -31.145075      15.7932      15.7932      15.7932            0            0            0   -1166.6835    3528.4868   -2716.9196   -8327.1256   -1207.9081    -75.46296 
  125000    3939.2215    368.43169   -286.76092     321.7799   -598.86373   -277.08384   -293.55811     12.86876    4738.4017   -1243.9514    98.328035    147.12951    399.63011            0    645.08766   -5995.2219   -31.145075      15.7932      15.7932      15.7932            0            0            0   -1645.6326   -3106.0214    660.47022   -1358.8598    -1194.353    1692.9301 
  126000    3939.2215    383.04228   -4550.2324    334.54045   -631.71702   -297.17657   -558.58518    9.1348629    4693.5172   -1288.7596    104.81003     149.4931    402.73948            0    657.04262   -5991.4117   -31.145075      15.7932      15.7932      15.7932            0            0            0   -1368.9547   -1567.7342   -1414.4697    -2446.863   -7185.2547   -4018.5794 
  127000    3939.2215     349.2168    2075.8864    304.99804   -619.92424   -314.92619   -195.66754   -31.285555    4781.5584   -1246.8782     97.60563    128.58523    400.76307            0    626.95393    -5997.151   -31.145075      15.7932      15.7932      15.7932            0            0            0    -253.5926   -794.89835    -1243.803    5455.7436   -4377.2925    5149.2082 
  128000    3939.2215    348.87267   -192.92468    304.69749   -605.79676   -301.09927    -312.1827   -16.340942    4774.5697    -1232.009    93.283118    122.39153    410.53764            0    626.21229   -5990.2378   -31.145075      15.7932      15.7932      15.7932            0            0            0   -1243.8846    1098.1251    1685.7775   -4346.4129    1327.8051    2439.8337 
  129000    3939.2215    377.61355   -4623.6573    329.79912   -614.62617   -284.82705   -550.45388    11.723538    4742.1791   -1239.7411    114.44934    114.81948    395.84614            0    625.11497   -5993.6438   -31.145075      15.7932      15.7932      15.7932            0            0            0   -1798.4599   -1145.5077    -802.4838   -7878.5637   -2964.0444   -3028.3638 
  130000    3939.2215    376.01832    228.12451    328.40588    -627.5233   -299.11742   -286.01178    13.059366    4732.0462   -1247.6599    84.980323    133.50822    401.64802            0    620.13657   -5992.7655   -31.145075      15.7932      15.7932      15.7932            0            0            0    -1288.167   -73.158465    3149.9565    1967.8462   -608.91673   -674.55598 
  131000    3939.2215    356.54527    3302.0676    311.39856   -617.54317   -306.14461   -116.44247    4.3647997    4718.6077   -1268.7762    87.676363    152.55315    411.00356            0    651.23307   -5991.7488   -31.145075      15.7932      15.7932      15.7932            0            0            0    3754.4953    808.99308   -322.84167    4719.1858    2004.6508     3182.366 
  132000    3939.2215    407.36809    5973.7203    355.78606    -597.7605   -241.97444    101.21284    18.544991    4759.7781   -1213.9911    82.438909    140.36798     393.4237            0     616.2306   -5992.3142   -31.145075      15.7932      15.7932      15.7932            0            0            0    824.31543   -3147.7247    85.812854    9458.6913    1192.4525    7270.0172 
  133000    3939.2215     378.3472    1195.8481    330.43987   -619.93955   -289.49968    -220.7988    14.373908    4724.4664   -1255.1959     99.74838    130.51591    404.99202            0    635.25631   -5994.0362   -31.145075      15.7932      15.7932      15.7932            0            0            0    1675.7898   -2368.7844   -2583.8866   -2056.6691    5742.8186   -98.605196 
  134000    3939.2215    389.32374   -1751.7978    340.02653   -605.22129   -265.19476   -365.83468    43.147517     4690.653   -1261.0537    109.92076     144.0733    401.83832            0    655.83237   -5994.8542   -31.145075      15.7932      15.7932      15.7932            0            0            0    2489.0809   -1693.5925   -2212.9185   -6440.8009   -920.67274    2106.0801 
  135000    3939.2215    344.44391   -4532.8373     300.8295   -637.74195   -336.91244    -597.3217   -22.711066     4760.812   -1256.0698    89.411133    126.58909    402.32764            0    618.32787   -5994.1707   -31.145075      15.7932      15.7932      15.7932            0            0            0   -389.92175   -751.57237   -3087.7175   -2930.1177    -5968.859   -4699.5352 
  136000    3939.2215    395.74909     637.2108    345.63829   -609.35108   -263.71279   -227.10534    6.1646026    4750.8654   -1241.7368    102.78285    132.78769    396.81522            0    632.38576   -5998.7669   -31.145075      15.7932      15.7932      15.7932            0            0            0     223.2498   -2778.2107   -52.654715    -1053.593    293.59835    2671.6271 
  137000    3939.2215    420.41014    968.38564    367.17669   -600.06667   -232.88998   -177.25671   -2.6752453    4772.5117   -1222.4528    92.481083    130.90145    399.00358            0    622.38611   -5992.2892   -31.145075      15.7932      15.7932      15.7932            0            0            0    1366.1549   -2691.0882    638.63849    4435.7281   -1450.4415   -80.129629 
  138000    3939.2215    380.55864   -3298.5766    332.37129   -604.24066   -271.86937   -461.37096    31.610237    4726.1192   -1235.6753    98.907493    136.70354    395.82359            0    631.43463   -5993.4047   -31.145075      15.7932      15.7932      15.7932            0            0            0    5229.4339    4067.5613    1606.6156    2051.3023   -6118.7968   -5828.2354 
  139000    3939.2215    369.23056   -1954.0558    322.47761   -634.92574   -312.44814   -424.70768   -5.1820073    4730.9824   -1271.5282    99.683714    133.33058    403.58816            0    636.60246   -5997.3286   -31.145075      15.7932      15.7932      15.7932            0            0            0   -71.914217    606.17084   -4239.0935    1585.1573   -2903.5743   -4543.7505 
  140000    3939.2215     401.2764    1035.3111    350.46572   -617.69213   -267.22641    -207.7483    15.929309    4716.6414   -1263.0576    108.35016    135.28795    401.72734            0    645.36545   -5995.6282   -31.145075      15.7932      15.7932      15.7932            0            0            0   -2538.6839   -1960.9983    565.98982    4482.6563    358.83903    -1735.562 
  141000    3939.2215    387.94254    3565.8909    338.82022   -628.77312    -289.9529   -85.094227   -5.5867628     4733.053   -1265.2326    93.430567    135.36212    407.66679            0    636.45948   -5992.6988   -31.145075      15.7932      15.7932      15.7932            0            0            0    2192.3722    38.324537   -2888.4446    7548.6095    1870.1491    1278.9142 
  142000    3939.2215    402.80197    511.40231    351.79811   -573.05166   -221.25354   -191.87373    24.101171    4739.6585   -1232.8735     101.5077    146.20942    412.10471            0    659.82183   -5996.6332   -31.145075      15.7932      15.7932      15.7932            0            0            0    -856.7352     740.1319   -5458.9915    199.21967   -5421.2492    6756.2365 
  143000    3939.2215    386.80103    3029.5178    337.82326   -627.56879   -289.74554   -115.70124    9.8691767    4745.9584   -1244.6852    84.525453    122.42221    410.16871            0    617.11637   -6000.5128   -31.145075      15.7932      15.7932      15.7932            0            0            0    4320.1581    -534.2534    -2005.362    1228.8684    4630.7511    3228.9338 
  144000    3939.2215    395.54153    -2660.845    345.45701   -584.55608   -239.09907    -391.9633   -7.4414863    4788.0647    -1211.528    100.97694    120.35394    405.64101            0    626.97189   -5992.1512   -31.145075      15.7932      15.7932      15.7932            0            0            0    4514.3704   -2897.7111    -790.2921   -1018.4433     350.2212    -7314.313 
  145000    3939.2215    354.51224     6332.555    309.62296   -583.42116    -273.7982    90.003957    9.5801048    4774.8209   -1211.4108     97.90552    130.09773    399.98639            0    627.98965   -5995.8118   -31.145075      15.7932      15.7932      15.7932            0            0            0    4928.6297    3890.8702   -3311.4893    4146.6966    2751.8754    12099.093 
  146000    3939.2215     364.9807   -1229.6747    318.76588   -607.15737   -288.39149    -359.0357    27.769738    4701.4082   -1263.9042    101.38905    144.93365    410.42416            0    656.74686   -5993.0821   -31.145075      15.7932      15.7932      15.7932            0            0            0   -1775.6059    3265.4133    3087.2175   -761.23203   -3641.3254    713.53321 
  147000    3939.2215    387.36964    3056.1547    338.31987   -613.53222   -275.21235   -99.637773    5.9005895    4753.4606    -1230.111    90.242115     126.5217    399.81498            0    616.57879   -5989.4722   -31.145075      15.7932      15.7932      15.7932            0            0            0    2208.3378    4060.7313   -3380.0498    2437.4651    4853.1987    1877.8003 
  148000    3939.2215    352.66488   -4782.0146    308.00952   -582.11997   -274.11046   -548.83483   -18.348323    4768.6965   -1241.8227    100.80451    148.83483    410.06335            0    659.70268   -5992.1708   -31.145075      15.7932      15.7932      15.7932            0            0            0   -6334.9637   -627.67982   -204.96648   -5395.9521   -6701.7186    -2248.373 
  149000    3939.2215    395.10329    4727.0726    345.07426   -613.18678   -268.11252    3.4554636   -1.4940811    4733.2026   -1265.1119    96.188132    151.17435    404.56263            0    651.92511   -5996.8204   -31.145075      15.7932      15.7932      15.7932            0            0            0    1053.2951   -1501.5378   -4544.7085     10472.65    857.84698    2850.7206 
  150000    3939.2215    348.20329    2621.3849    304.11286   -644.11637    -340.0035   -189.40624    5.2590419    4733.7871   -1256.5004    88.278398    126.40125    397.70443            0    612.38407   -5995.5466   -31.145075      15.7932      15.7932      15.7932            0            0            0   -2048.4196    47.810121   -2371.3044    1323.8215     4109.123    2431.2102 
  151000    3939.2215    369.31758   -307.52726    322.55361   -615.50557   -292.95195   -310.61924    -16.27756    4758.4794   -1247.7361      105.111      126.229    400.89059            0    632.23058    -5989.938   -31.145075      15.7932      15.7932      15.7932            0            0            0   -5678.8502   -2732.4921    529.57555    1223.6953   -519.85834   -1626.4188 
  152000    3939.2215    366.24614     4534.213    319.87108    -586.0977   -266.22662   -5.7383266    2.1187546    4772.8807    -1222.113     95.16696     135.2696    405.57877            0    636.01533   -5997.1125   -31.145075      15.7932      15.7932      15.7932            0            0            0    2240.3974   -83.508259    1481.5929    3706.1223     3398.987    6497.5296 
  153000    3939.2215    370.82297   -5448.8581    323.86838   -621.35429    -297.4859   -610.52011    -9.299303    4738.7259   -1260.3703    99.306388    134.29171    405.41793            0    639.01602   -5989.7969   -31.145075      15.7932      15.7932      15.7932            0            0            0    164.51753    1777.5807   -560.25051   -6321.2371   -3413.0934   -6612.2437 
  154000    3939.2215    360.64367    -2555.492    314.97801   -627.83264   -312.85463   -459.66639   -12.736005    4739.3772   -1272.7328    103.13897    139.16187    402.59928            0    644.90012   -5999.3739   -31.145075      15.7932      15.7932      15.7932            0            0            0    -2398.371   -5798.2445   -681.88888   -4430.0851    957.53476   -4193.9258 
  155000    3939.2215    372.51142     -1695.97    325.34303   -602.83719   -277.49415   -374.92679   -3.9471538    4749.5724   -1255.3444     97.83541    150.31496    404.35689            0    652.50726   -6000.9697   -31.145075      15.7932      15.7932      15.7932            0            0            0   -1517.2606    -2562.233    1292.8372     281.3278   -2497.2368   -2872.0011 
  156000    3939.2215    401.64638    205.00946    350.78885   -615.34474   -264.55589    -252.7782    12.815234     4713.229   -1269.0105    92.449209    155.25367    405.96287            0    653.66575   -5995.0548   -31.145075      15.7932      15.7932      15.7932            0            0            0    4842.8586   -1238.8273    629.81715   -5149.4543    1583.9691    4180.5136 
  157000    3939.2215    343.38601   -2845.8165    299.90556   -601.87189   -301.96633   -465.45708     4.425747     4739.059   -1251.7671    102.37842    146.40367    401.11313            0    649.89521   -5995.2518   -31.145075      15.7932      15.7932      15.7932            0            0            0   -1854.2943    2990.8577   -1335.4686   -633.83199   -7609.7227   -293.89475 
  158000    3939.2215    392.13572    3149.9398    342.48245   -586.24239   -243.75993   -62.797448    3.0897796    4751.4203   -1238.3437    103.03136    139.42939    409.64055            0     652.1013   -5992.8538   -31.145075      15.7932      15.7932      15.7932            0            0            0    1385.4296    3209.7551   -2254.8211    1585.0649    4153.6019    3711.1527 
  159000    3939.2215    396.52698    111.74886    346.31768   -615.65824   -269.34056   -262.92064   -12.090895     4740.911   -1264.8688    102.61507    147.17794    399.41753            0    649.21054   -5993.6889   -31.145075      15.7932      15.7932      15.7932            0            0            0   -954.59578   -3925.3848    2151.6476   -2655.5799    3497.1147    -506.2882 
  160000    3939.2215    383.26626   -331.68387    334.73607   -625.97963   -291.24356   -310.29864    14.078155    4721.6067   -1251.4577    88.604917    135.20177    401.67141            0     625.4781   -5987.1426   -31.145075      15.7932      15.7932      15.7932            0            0            0    1450.0873    3204.6079   -781.68044   -467.16763   -1181.8029    653.91896 
  161000    3939.2215    370.10788    3345.4184    323.24383   -590.67971   -267.43588   -75.243242    5.5798666    4768.0497    -1217.556    89.047281    137.07528    400.75375            0    626.87631   -5991.1856   -31.145075      15.7932      15.7932      15.7932            0            0            0   -5052.3989   -1128.1768    508.41405    3097.4759    1483.0465    5455.7329 
  162000    3939.2215    365.04184    5422.2379    318.81928   -610.88947   -292.07019    19.434696    30.116295    4710.7407    -1252.267    82.519237     153.9548    404.90353            0    641.37757    -5993.124   -31.145075      15.7932      15.7932      15.7932            0            0            0    1943.4941     794.3162    200.08029    5254.4956    4441.3818    6570.8363 
  163000    3939.2215    362.98826   -1258.3955    317.02573    -593.4583   -276.43257   -348.72677   -3.9608064    4765.8231   -1232.3099    110.29005    138.46166    390.09995            0    638.85165   -5994.1723   -31.145075      15.7932      15.7932      15.7932            0            0            0    1017.8284   -1422.7347   -2675.5481   -2393.6425    -2424.172    1042.6281 
  164000    3939.2215    356.40963    210.62862    311.28009   -608.36818   -297.08808   -284.98757    2.3744727    4753.4353   -1237.6366    110.30635    122.15021    396.81189            0    629.26845   -5993.4464   -31.145075      15.7932      15.7932      15.7932            0            0            0     2942.088    882.87394   -1947.1391    3822.7273   -2168.8252   -1022.0162 
  165000    3939.2215    362.26887    2128.6206    316.39742   -580.19033    -263.7929    -141.5047    25.588793    4718.0311   -1251.5909    101.84072    173.89546    395.66438            0    671.40056   -5995.2108   -31.145075      15.7932      15.7932      15.7932            0            0            0   -2525.9347    715.58739   -3062.7912     292.6089    3171.5891    2921.6638 
  166000    3939.2215    382.64772   -4020.5019    334.19585    -627.0426   -292.84675   -523.82259     2.785524     4736.633   -1255.1076    104.32107     127.8913    395.85261            0    628.06499   -5994.5261   -31.145075      15.7932      15.7932      15.7932            0            0            0    108.55485    489.56959    179.42649    1014.1165   -6524.8032   -6550.8189 
  167000    3939.2215    373.74139   -648.64621    326.41726   -602.15758   -275.74031   -313.00472    -6.471723    4752.3694   -1251.4288    104.14437    145.81121     399.3156            0    649.27118   -5997.3264   -31.145075      15.7932      15.7932      15.7932            0            0            0      567.726   -1814.6929   -1181.3915   -3111.3946   -1971.3457    3136.8017 
  168000    3939.2215    372.70091     6351.048    325.50853   -595.12621   -269.61768    95.246891    10.158282    4759.6625   -1230.4309    102.85907    131.92563    400.51998            0    635.30467   -6000.2517   -31.145075      15.7932      15.7932      15.7932            0            0            0    400.02401   -498.42151   -3822.3436    12292.148    5215.9164    1545.0801 
  169000    3939.2215    322.87952    3186.8598    281.99566   -590.74733   -308.75167   -125.66815    12.033886    4728.1524     -1254.24    105.67561    159.79933    398.01772            0    663.49265   -5994.4262   -31.145075      15.7932      15.7932      15.7932            0            0            0    5982.2193    -1476.452   -3391.3081      263.126    11066.444   -1768.9909 
  170000    3939.2215     368.6536   -5093.1931     321.9737   -619.44756   -297.47386   -590.07529   -6.4441543    4732.4243   -1268.9439    112.96119    137.97746    398.55766            0    649.49631    -5994.924   -31.145075      15.7932      15.7932      15.7932            0            0            0    3931.0768   -1422.3475    426.90187   -5017.2748    -5142.873   -5119.4316 
  171000    3939.2215     348.4635   -559.76255    304.34013   -560.75685   -256.41673   -288.57481   -14.208697    4763.3292   -1243.1913    118.03329    166.71986    397.68128            0    682.43443   -5992.3118   -31.145075      15.7932      15.7932      15.7932            0            0            0   -424.25467    178.88984   -840.33067   -5556.8051     2878.118    999.39946 
  172000    3939.2215    362.21968   -4637.5452    316.35446   -624.48845   -308.13399   -574.55867   -3.7642698    4736.0075   -1264.0083    101.02445    138.70288    399.79254            0    639.51988   -5996.2515   -31.145075      15.7932      15.7932      15.7932            0            0            0     3064.473   -189.19039    1622.1203   -1022.2354   -8171.6058   -4718.7944 
  173000    3939.2215    349.22493   -3618.8801    305.00515   -630.22382   -325.21867   -533.12154   -9.1355096    4735.6884   -1263.4574    96.496443    135.80689    400.93024            0    633.23357   -5990.0103   -31.145075      15.7932      15.7932      15.7932            0            0            0     134.2806   -2729.5036    1064.1272    -2991.382   -6960.6563   -904.60209 
  174000    3939.2215    366.98355    3055.4786    320.51512   -608.52705   -288.01193    -112.4762    9.5862344    4737.0306    -1249.401    100.71588    132.76087    407.39722            0    640.87397   -5996.0179   -31.145075      15.7932      15.7932      15.7932            0            0            0   -1502.6651    6138.7471   -5152.0107    2619.2828    3642.3033    2904.8499 
  175000    3939.2215    394.37629   -165.32722    344.43932   -628.72242    -284.2831   -293.78106   -5.2991697    4755.2698   -1250.1087    99.338163    125.78025    396.26788            0    621.38629   -6000.0794   -31.145075      15.7932      15.7932      15.7932            0            0            0    -3051.264   -620.02661   -1617.2784   -8265.5367    892.74372    6876.8113 
  176000    3939.2215    375.35679   -1910.1445    327.82811   -591.78702    -263.9589   -373.69576   -7.6742642    4752.5671    -1246.952      102.342    148.04058    404.78238            0    655.16495   -5991.8449   -31.145075      15.7932      15.7932      15.7932            0            0            0    534.80671   -3623.5109   -873.16287   -1691.5253   -44.819744   -3994.0886 
  177000    3939.2215    355.78059   -2784.0869    310.73071   -615.00359   -304.27289    -464.2173   -6.0532578    4746.7862   -1255.6079    110.58565    128.36647    401.65217            0    640.60428   -5996.3408   -31.145075      15.7932      15.7932      15.7932            0            0            0    2685.5009   -1205.5336    1215.6272   -4899.9643   -3576.7471     124.4507 
  178000    3939.2215    362.42865   -130.73068    316.53697    -601.3918   -284.85483   -292.36524    26.758788    4727.4238    -1241.502    104.07648    138.65304    397.38067            0    640.11019   -5995.6846   -31.145075      15.7932      15.7932      15.7932            0            0            0    1880.9203   -3864.7361    2191.1025    4964.2608   -1761.2427   -3595.2102 
  179000    3939.2215    370.56248   -2414.1764    323.64088   -590.41339   -266.77252   -405.46576     -40.0633    4789.0354   -1245.7216    95.590999    158.35782    401.35939            0    655.30821   -5994.6937   -31.145075      15.7932      15.7932      15.7932            0            0            0   -1406.7255   -2691.0463   -1028.1007   -6649.1613   -350.50111   -242.86683 
  180000    3939.2215    388.03601   -3707.3289    338.90186   -614.86227   -275.96041   -488.94462    8.4103415    4727.1861   -1264.0151    104.59217    144.50204    400.05862            0    649.15284   -5999.6115   -31.145075      15.7932      15.7932      15.7932            0            0            0    2042.8702    51.633698    178.38023    -8835.993   -1049.4235   -1236.5701 
  181000    3939.2215    356.35941   -1580.3682    311.23624   -598.62766   -287.39142    -378.1828    28.632435    4726.5133   -1240.5474    99.546555     135.6623    406.71091            0    641.91977   -5995.6932   -31.145075      15.7932      15.7932      15.7932            0            0            0    3336.5057    1239.3862   -4343.1448    141.52399   -4410.4707   -472.15805 
  182000    3939.2215    371.90441   -3719.8908    324.81289   -605.78325   -280.97036   -494.67625   -14.991437    4777.0693   -1231.4463    94.121787    124.96266    406.57859            0    625.66304   -5993.5241   -31.145075      15.7932      15.7932      15.7932            0            0            0    1593.3177    1037.4818    500.68659   -3615.6374   -9162.3012    1618.2662 
  183000    3939.2215    401.75843    1963.8599    350.88671    -580.8128   -229.92609   -117.10331    4.1377425    4748.2474   -1241.2225    101.50078    157.60187    401.30706            0     660.4097   -5993.6076   -31.145075      15.7932      15.7932      15.7932            0            0            0   -4088.1138   -1558.3954    1267.1032    6413.9438     2298.589   -2820.9531 
  184000    3939.2215    343.38453    5606.1025    299.90427   -625.54887    -325.6446   -3.5767854    9.1832953    4729.6731   -1251.5661     91.18485    132.84812     401.9843            0    626.01727   -5990.4226   -31.145075      15.7932      15.7932      15.7932            0            0            0    -719.4753     565.7616   -2118.1701    6841.8026    2670.6816    7305.8233 
  185000    3939.2215    368.07843   -1052.2863    321.47136    -610.1204   -288.64904   -349.10236   -33.035289    4800.6839   -1229.1197    94.775815    123.38414    400.83929            0    618.99925   -5996.7682   -31.145075      15.7932      15.7932      15.7932            0            0            0    4895.3075   -2732.7332    1701.7718   -3612.3099   -2762.6131    3218.0643 
  186000    3939.2215    353.23324   -3034.9894    308.50591   -619.68287   -311.17696    -485.5356    4.6309483    4750.2093   -1240.4915    99.343178    121.02203    400.44342            0    620.80863   -5995.3317   -31.145075      15.7932      15.7932      15.7932            0            0            0    3231.2107   -4346.3431    968.87266   -2690.6645   -1429.5161   -4984.7876 
  187000    3939.2215    378.68337   -5177.3018    330.73348   -631.40595   -300.67248   -598.10591    1.6590975     4711.415   -1286.1438    101.78207     145.1813    407.77443            0     654.7378   -5999.2178   -31.145075      15.7932      15.7932      15.7932            0            0            0    1706.9899    1173.1747   -1635.0764   -5271.5786   -5238.2951   -5022.0316 
  188000    3939.2215    370.13988   -697.04678    323.27179   -605.28306   -282.01127   -322.05627    7.0752729    4743.7764   -1245.2596    95.133833    130.21527    414.62741            0    639.97652   -5996.1113   -31.145075      15.7932      15.7932      15.7932            0            0            0    859.69765     2056.275    1635.2598    3756.3912   -2105.1424   -3742.3892 
  189000    3939.2215    366.11643    1875.3233     319.7578   -607.60858   -287.85078   -180.11438    9.1622234    4714.5772   -1273.6942    107.77673    154.00727    404.30166            0    666.08567   -5997.4337   -31.145075      15.7932      15.7932      15.7932            0            0            0   -4144.1117   -2154.8276   -1147.1205   -392.28883    6707.4502   -689.19148 
  190000    3939.2215    396.76469    4061.6251    346.52529   -575.83313   -229.30784    4.0305098    6.2113107    4767.4023   -1216.8238    98.730797    137.01426    405.24565            0    640.99071   -5990.4374   -31.145075      15.7932      15.7932      15.7932            0            0            0   -2205.4496   -3084.9822    3113.8573     3172.624    6714.7313      2297.52 
  191000    3939.2215    407.89403    5436.1964     356.2454   -609.72002   -253.47461    58.832183    17.656469    4743.0844   -1237.0199    96.412891    129.18002    401.70694            0    627.29985   -5997.7607   -31.145075      15.7932      15.7932      15.7932            0            0            0    2492.3371    3671.0387   -773.21247    3570.1616    2884.0795    9854.3481 
  192000    3939.2215    348.95263     462.2967    304.76732   -632.77802    -328.0107   -301.45198   -5.8750602    4752.6942   -1249.0492    87.304619    133.50948    395.45705            0    616.27115   -5995.8683   -31.145075      15.7932      15.7932      15.7932            0            0            0   -2529.7921    3933.3985    703.51433    4455.1536    756.24711   -3824.5106 
  193000    3939.2215     380.3345    2583.5385    332.17553   -618.68151   -286.50598   -138.08297    -10.48392    4745.8576   -1259.9565    96.893332    152.33996    392.04169            0    641.27498   -5995.3302   -31.145075      15.7932      15.7932      15.7932            0            0            0    3491.2929   -484.65727   -953.39454     3685.669    3772.3254      292.621 
  194000    3939.2215    384.65346    5127.0547    335.94761   -596.97394   -261.02632    33.520433    3.7703073      4747.87   -1242.6504    99.959584    146.15705    399.55978            0    645.67642   -5994.2906   -31.145075      15.7932      15.7932      15.7932            0            0            0     991.4406   -1070.6374    1330.1016    8564.7017    4759.8284     2056.634 
  195000    3939.2215    376.52722    3758.9342    328.85034    -592.9345   -264.08416   -48.135248    10.404403    4753.2037   -1233.1843    100.95115     133.1522    406.14644            0    640.24979   -5996.7923   -31.145075      15.7932      15.7932      15.7932            0            0            0    -4572.175    -2065.078     398.6865   -410.71407    9481.3385    2206.1783 
  196000    3939.2215    382.50192    815.19154    334.06851   -637.25274   -303.18423   -256.35188   -8.2309874    4772.5333   -1234.6874    84.106102    114.39968    398.92886            0    597.43464   -5998.9897   -31.145075      15.7932      15.7932      15.7932            0            0            0   -1292.0895   -235.12693    5144.1151   -1654.4879    3768.2522    331.81023 
  197000    3939.2215    341.52497   -4878.8041    298.28017   -595.12305   -296.84288   -577.12776  0.089715662    4746.9085    -1247.884    101.14999    144.02514    407.58581            0    652.76094   -5994.8822   -31.145075      15.7932      15.7932      15.7932            0            0            0    142.60967   -1089.6023    1125.9178   -4210.0601   -9450.1256   -976.22678 
[...]
 9955000    3939.2215    405.53439    -4592.492    354.18455   -611.65969   -257.47513   -521.31153   -9.1616212    4747.2817   -1256.7468    108.31379    129.27115    407.50221            0    645.08715   -5994.8669   -31.145075      15.7932      15.7932      15.7932            0            0            0   -4643.5939   -208.72293    1205.7716   -10730.641   -3690.4966    643.66199 
 9956000    3939.2215    372.63051   -987.60919    325.44705   -634.80988   -309.36283   -366.10049   -4.4612029    4739.1992   -1262.0641    99.629634    127.02254    400.60201            0    627.25419    -5996.802   -31.145075      15.7932      15.7932      15.7932            0            0            0   -2085.1464   -1537.2384    1736.0945   -2754.1771   -3790.0211    3581.3706 
 9957000    3939.2215    375.83926    -153.3799    328.24949   -609.33205   -281.08256   -289.89416    10.518675    4725.7241   -1260.2759    97.041933    158.27561    395.62633            0    650.94387   -5996.5187   -31.145075      15.7932      15.7932      15.7932            0            0            0    490.99302    1138.7416   -1635.5242    2221.2146   -4694.7766    2013.4223 
 9958000    3939.2215    362.79657    769.01363     316.8583   -581.17189   -264.31358   -220.13413    9.0751331     4723.816   -1259.4558    101.26779     179.2316     397.7845            0    678.28389   -5992.3469   -31.145075      15.7932      15.7932      15.7932            0            0            0   -1060.8521    62.691944    1525.4021    5371.2076   -2844.5104   -219.65634 
 9959000    3939.2215    364.98757   -845.06144    318.77187   -617.70217    -298.9303   -347.47866    21.997904    4729.8735   -1243.3926    98.213108    129.39071    398.08658            0     625.6904    -5995.264   -31.145075      15.7932      15.7932      15.7932            0            0            0    2353.2764    2642.0792    3259.0016   -1655.7576   -1087.0654     207.6387 
 9960000    3939.2215    364.92536   -2120.1845    318.71754   -568.88083   -250.16329   -371.96684    1.0196206    4783.1087   -1208.2079    99.413449    137.88986    402.02372            0    639.32704   -5992.3362   -31.145075      15.7932      15.7932      15.7932            0            0            0    1222.9535   -1141.1432    5455.8359     -7021.47    3334.1323   -2673.2159 
 9961000    3939.2215    354.09352    1351.8601    309.25726   -598.15572   -288.89846   -211.23477   -20.311982    4791.4063    -1219.715    93.151767    129.59296    398.81451            0    621.55924   -5990.8093   -31.145075      15.7932      15.7932      15.7932            0            0            0   -1433.2569   -428.63936    353.57602   -1357.1854    3543.2109    1869.5548 
 9962000    3939.2215    372.75274   -604.17147    325.55379   -617.68584   -292.13205    -326.8414    7.3581267    4752.7158   -1233.3324    93.887426    126.57513    395.18398            0    615.64654   -5993.4063   -31.145075      15.7932      15.7932      15.7932            0            0            0   -261.86769    2128.2452    1067.9231   -5382.4929    1937.5513    1632.4272 
 9963000    3939.2215    362.01646    1399.4931    316.17697   -574.45141   -258.27443   -177.87425   -21.751586    4782.0221   -1234.3558    118.53303    135.58497    405.78635            0    659.90435   -5994.6263   -31.145075      15.7932      15.7932      15.7932            0            0            0    409.40175    1754.7226   -3835.9378    3168.5621    3051.5895   -2021.6721 
 9964000    3939.2215    372.01624   -2251.8871    324.91055   -612.00745   -287.09689   -416.46669   -6.0620609    4746.7282   -1250.3596    96.216075    133.11701    409.01906            0    638.35214   -5991.0257   -31.145075      15.7932      15.7932      15.7932            0            0            0   -1847.7646    1411.0491    1725.5817   -11027.135    4861.1687   -589.69455 
 9965000    3939.2215    363.49186    3114.1433    317.46555   -622.25631   -304.79076   -125.88477    18.237709    4730.0611   -1244.7707    84.865656    130.83775    406.81094            0    622.51435   -5993.0695   -31.145075      15.7932      15.7932      15.7932            0            0            0   -106.87657    3476.4283   -1324.4438    2102.2543    6370.4214    869.75414 
 9966000    3939.2215    358.52112    1832.1169    313.12422   -584.84997   -271.72574   -166.47153   -3.2962735    4761.7727   -1234.9596    94.841586    152.70481    402.56321            0    650.10961    -5993.436   -31.145075      15.7932      15.7932      15.7932            0            0            0   -2022.8973   -4699.3777    28.629816    4808.3471   -1918.0215    2606.0252 
 9967000    3939.2215    360.98814    -966.6237    315.27887   -609.31511   -294.03624   -349.56829    1.7194552    4729.1531   -1261.8079    110.72369     137.3708    404.39826            0    652.49275   -5992.6805   -31.145075      15.7932      15.7932      15.7932            0            0            0   -3177.5982    498.39013   -471.88635   -4909.1059   -1051.8762    3061.1111 
 9968000    3939.2215    356.95998   -719.87729    311.76076   -612.51178   -300.75102   -342.10762   -10.741268    4775.4597   -1229.6561    87.659787     133.5968    395.88773            0    617.14431   -5994.3745   -31.145075      15.7932      15.7932      15.7932            0            0            0   -1275.9935   -1552.6631     3730.592    2760.4004    176.97279    -5097.005 
 9969000    3939.2215    376.88435    1358.5756    329.16225   -610.58591   -281.42366   -203.37417   -9.1337572    4751.2396   -1252.7244    98.633634    137.14023    406.36466            0    642.13853   -5994.8303   -31.145075      15.7932      15.7932      15.7932            0            0            0    2534.5217    2825.8038    4185.3298      276.025    2367.2966    1432.4052 
 9970000    3939.2215      365.863    1330.2917    319.53646    -586.8066   -267.27015   -190.84555     7.298383    4749.2865   -1238.5101    106.05794    146.79434    398.85118            0    651.70346   -5995.0949   -31.145075      15.7932      15.7932      15.7932            0            0            0   -884.02972   -1744.2791   -682.64294    2757.3841    983.75094    249.73996 
 9971000    3939.2215    363.00279    2935.5864    317.03842   -618.05415   -301.01574   -132.36775    22.978001    4705.2558   -1264.4383    96.860654    152.52027    397.00325            0    646.38417   -5992.6721   -31.145075      15.7932      15.7932      15.7932            0            0            0   -3259.2294   -3191.2589    783.75541    6883.6419    4948.4329   -3025.3157 
 9972000    3939.2215    384.80781    -1460.999    336.08242   -613.14628   -277.06386   -360.99753    18.688673    4706.2852   -1268.2442    118.70782    132.11009    404.27997            0    655.09788    -5993.218   -31.145075      15.7932      15.7932      15.7932            0            0            0   -1305.8566   -3414.3739   -6969.8356   -5107.6699    1480.9996   -756.32655 
 9973000    3939.2215    364.46912   -5613.7841    318.31907   -611.52646   -293.20739   -615.71651    16.619565    4709.1228   -1268.5837    109.36275     142.9064    404.78804            0    657.05719    -5994.326   -31.145075      15.7932      15.7932      15.7932            0            0            0   -2262.4998   -5187.2518    4014.7429   -5779.0489   -6938.3673   -4123.9363 
 9974000    3939.2215     377.0794   -2507.0916     329.3326   -599.43318   -270.10058   -414.13175   -16.313556    4764.0952   -1244.9024    105.18196     140.4638    399.82347            0    645.46924   -5992.6841   -31.145075      15.7932      15.7932      15.7932            0            0            0    1427.8126   -3753.1919   -698.91764   -2372.6685   -1267.2269   -3881.3794 
 9975000    3939.2215    392.11505   -1639.1526     342.4644   -586.80453   -244.34014   -338.50864   -13.376987    4771.2938   -1235.3655    104.27438    134.09858      410.188            0    648.56095   -5993.2823   -31.145075      15.7932      15.7932      15.7932            0            0            0   -3737.3557   -3909.3136   -1615.4048   -2221.9505   -2599.7332   -95.773973 
 9976000    3939.2215    384.84162   -361.19195    336.11195   -626.51429   -290.40234   -311.15264   -16.391337    4754.4211   -1258.6357    93.803528    134.97956    403.33828            0    632.12137   -5996.6654   -31.145075      15.7932      15.7932      15.7932            0            0            0   -756.17173    1352.4024   -2034.1112    640.34958    4351.2422   -6075.1676 
 9977000    3939.2215    405.67313   -1044.0238    354.30572   -573.50672     -219.201   -279.17965   -6.0444156    4788.9968    -1214.976    118.09036    127.24693    396.13201            0     641.4693   -5997.9284   -31.145075      15.7932      15.7932      15.7932            0            0            0    286.85001     1682.653    -5858.431    2734.3927   -1644.2412    -4222.223 
 9978000    3939.2215    360.08861     1743.449    314.49323   -588.89754   -274.40431   -174.24402    6.3069404     4748.773   -1242.4781    108.78648    140.11903    404.67501            0    653.58051    -5997.558   -31.145075      15.7932      15.7932      15.7932            0            0            0     6919.566   -1659.5847    3270.5962    1545.1117    2109.5468    1575.6886 
 9979000    3939.2215    398.63823    915.14964     348.1616   -648.91572   -300.75412   -248.17923    12.519153    4717.0651   -1267.4067    87.155022     123.1513    408.18466            0    618.49098   -5996.9909   -31.145075      15.7932      15.7932      15.7932            0            0            0   -280.17087   -4649.4437   -1338.0642   -728.21523    2414.7522     1058.912 
 9980000    3939.2215    370.71051    5667.9281    323.77016   -618.31037    -294.5402    31.079463    7.2578419    4742.8799   -1246.8024    102.07944    130.15675    396.25588            0    628.49207   -5996.9402   -31.145075      15.7932      15.7932      15.7932            0            0            0   -2560.9634    286.02256   -6858.0923    4456.9381    4737.2168    7809.6293 
 9981000    3939.2215    386.56127    -509.3558    337.61386   -582.83937   -245.22551   -274.48775   -6.3931749    4768.2732   -1225.4489    83.417471    160.25965    398.93237            0    642.60949   -5987.3289   -31.145075      15.7932      15.7932      15.7932            0            0            0   -1840.8329    3245.8401    2147.4588   -1257.2848   -3394.4588    3123.6762 
 9982000    3939.2215    407.01933    950.04751    355.48146   -564.24023   -208.75877   -154.17901   -5.5267393    4783.5567   -1210.8553    111.91026    139.58102    395.12376            0    646.61503   -5988.8852   -31.145075      15.7932      15.7932      15.7932            0            0            0    1494.3228    1293.7755   -9019.9197    1350.5473     3022.328   -1522.7329 
 9983000    3939.2215    367.79937    121.37075    321.22764    -617.0882   -295.86056   -288.88787    17.210538    4737.9968   -1234.7873     97.14471    125.47582     395.0786            0    617.69912   -5989.9946   -31.145075      15.7932      15.7932      15.7932            0            0            0   -2391.5664    -5483.954   -4653.1281    554.88125   -3610.4829    3419.7139 
 9984000    3939.2215    350.78641    973.59171     306.3689    -577.8848    -271.5159   -215.58354   -1.3972701    4783.0862   -1211.9946    96.657858    144.54225    392.90967            0    634.10977   -5993.6835   -31.145075      15.7932      15.7932      15.7932            0            0            0   -3494.1841   -2142.4042    1350.4407   -409.61098    2859.0569    471.32919 
 9985000    3939.2215    367.24299   -4389.5987    320.74171   -619.87107   -299.12936   -551.30964    8.5798948    4717.5758    -1270.444    97.160112    150.16419    403.24867            0    650.57298   -5996.5998   -31.145075      15.7932      15.7932      15.7932            0            0            0    890.36755   -4860.6051    671.06459   -8838.2774    923.72955   -5254.2484 
 9986000    3939.2215    364.84125    591.83304    318.64408   -605.42996   -286.78588   -252.78536    13.795917    4720.6683   -1262.9095    100.89485    157.76087    398.82386            0    657.47958   -5997.3738   -31.145075      15.7932      15.7932      15.7932            0            0            0   -1596.0078   -1186.8849    1095.3207   -4418.4274    3859.7376    2334.1889 
 9987000    3939.2215    369.34967    69.261499    322.58164   -599.98174    -277.4001   -273.42106    7.2868475    4740.7721   -1245.0699     106.6121    137.13424    401.34185            0    645.08819   -5993.1289   -31.145075      15.7932      15.7932      15.7932            0            0            0    -5931.118    3005.1598   -607.43539    1830.9682   -1613.5768   -9.6069865 
 9988000    3939.2215    375.96321    4159.1102    328.35775   -609.99404   -281.63629   -42.697471   -8.1791096    4761.0233   -1245.8131    83.303332    149.78634    402.72941            0    635.81908   -5998.6573   -31.145075      15.7932      15.7932      15.7932            0            0            0   -2401.4805    1548.5028     -1837.78    8041.8404     2062.498    2372.9922 
 9989000    3939.2215    377.44077   -1571.6107    329.64822    -619.7209   -290.07268   -380.36093   -19.771633    4749.5466   -1264.6697     99.39668     142.9725    402.57967            0    644.94884   -5994.4447   -31.145075      15.7932      15.7932      15.7932            0            0            0   -989.08052   -2516.4903   -409.04093   -2211.3698    -5723.702    3220.2397 
 9990000    3939.2215    357.79713   -6036.7461    312.49191   -606.97296   -294.48105   -641.28913   -9.3776936    4710.9057    -1295.074    122.66964    167.78345    397.64793            0    688.10102    -5996.602   -31.145075      15.7932      15.7932      15.7932            0            0            0   -3686.2159   -4255.8537    181.58246   -4554.0373   -4650.3396   -8905.8614 
 9991000    3939.2215    373.28793    1534.6879    326.02123   -590.22224   -264.20101   -176.03395   -8.9912045    4748.1397   -1253.3215    104.94438     152.3185    405.83637            0    663.09925     -5992.47   -31.145075      15.7932      15.7932      15.7932            0            0            0    429.76841   -785.39589    3853.0495    802.60524   -4592.6859    8394.1443 
 9992000    3939.2215    349.11578   -5201.8748    304.90981   -593.05395   -288.14414   -586.98928   -22.817798    4799.1846   -1221.3528       111.63    110.68076    405.98811            0    628.29887   -5997.7196   -31.145075      15.7932      15.7932      15.7932            0            0            0   -1348.8403   -332.45076    689.82518   -9381.4412   -2086.2202    -4137.963 
 9993000    3939.2215    364.37269   -1342.5781    318.23486   -606.54352   -288.30866   -365.43911   -15.699108    4760.8415    -1250.741    114.78134    129.71854    399.69761            0    644.19749   -5995.8834   -31.145075      15.7932      15.7932      15.7932            0            0            0    3067.8429    1020.2153   -2697.1542   -773.34744   -4278.3819    1023.9949 
 9994000    3939.2215    389.93233   -1646.6309    340.55806   -636.93334   -296.37528   -390.97341   -11.324864    4747.3222    -1259.678    84.913476    134.91222    402.91892            0    622.74462   -5995.6753   -31.145075      15.7932      15.7932      15.7932            0            0            0    3457.6518   -127.60586     1616.156    3466.4633   -4679.8964   -3726.4596 
 9995000    3939.2215     367.5791   -2056.3796    321.03525   -581.27448   -260.23923   -378.37722    10.417203    4743.8854   -1237.0876     105.1713    153.12772     397.5141            0    655.81312   -5991.3902   -31.145075      15.7932      15.7932      15.7932            0            0            0     1417.563    1020.9063    3203.1677   -3810.4741    1882.1483    -4240.813 
 9996000    3939.2215    360.27223    2121.2148    314.65361   -617.72388   -303.07027   -181.20753   -5.4460643    4743.0999    -1260.669     101.2995    138.99779    402.64785            0    642.94514   -5998.3229   -31.145075      15.7932      15.7932      15.7932            0            0            0     -2173.34   -4693.8921    3988.4792    5418.3695   -2320.2966    3265.5715 
 9997000    3939.2215    389.82467    5467.8037    340.46404   -602.22881   -261.76477    52.357843    17.820758     4765.265    -1213.531      83.7172    126.98507    400.59995            0    611.30222   -5996.6168   -31.145075      15.7932      15.7932      15.7932            0            0            0   -2754.2768     1563.661     435.8359    12945.468   -431.99743    3889.9403 
 9998000    3939.2215     385.0649      2603.95    336.30696   -621.22364   -284.91667   -135.32103    25.384098    4703.6739   -1264.0877    100.34118    143.32761    399.19525            0    642.86405   -5993.1457   -31.145075      15.7932      15.7932      15.7932            0            0            0   -1007.3288    1526.6485   -947.54436    2129.9084    5454.2107    227.73091 
 9999000    3939.2215    387.72265   -1562.6628    338.62818   -609.72217     -271.094    -360.8682   -6.3843538    4719.6521   -1279.9252    117.62605     145.9005    406.67646            0    670.20302   -5993.1929   -31.145075      15.7932      15.7932      15.7932            0            0            0   -143.62197    4369.0639   -1713.5234   -1481.7343   -718.78268   -2487.4714 
10000000    3939.2215    349.67025   -6008.3954    305.39408   -616.08377    -310.6897   -655.86904   -16.393283    4745.0314    -1263.379    101.36799    142.49422    403.43307            0    647.29527   -5992.0171   -31.145075      15.7932      15.7932      15.7932            0            0            0    1679.9389    1181.3247    1590.2495   -11224.697   -5718.5187   -1081.9707 
Loop time of 5263.74 on 4 procs for 10000000 steps with 294 atoms

Performance: 164.142 ns/day, 0.146 hours/ns, 1899.789 timesteps/s
93.1% CPU use with 4 MPI tasks x 1 OpenMP threads

MPI task timing breakdown:
Section |  min time  |  avg time  |  max time  |%varavg| %total
---------------------------------------------------------------
Pair    | 1278.9     | 1436.1     | 1570.6     | 276.8 | 27.28
Bond    | 122.5      | 124.92     | 127.25     |  17.9 |  2.37
Kspace  | 2544.1     | 2685.9     | 2848.1     | 210.6 | 51.03
Neigh   | 162.33     | 162.59     | 162.75     |   1.3 |  3.09
Comm    | 715.87     | 724.06     | 734.05     |  24.3 | 13.76
Output  | 3.1968     | 3.2477     | 3.3966     |   4.8 |  0.06
Modify  | 55.04      | 56.952     | 59.024     |  24.6 |  1.08
Other   |            | 69.98      |            |       |  1.33

Nlocal:    73.5 ave 79 max 68 min
Histogram: 1 0 1 0 0 0 0 1 0 1
Nghost:    1624.5 ave 1660 max 1592 min
Histogram: 2 0 0 0 0 0 0 0 1 1
Neighs:    8337 ave 9521 max 7082 min
Histogram: 1 0 0 1 0 0 0 1 0 1

Total # of neighbors = 33348
Ave neighs/atom = 113.429
Ave special neighs/atom = 4.87755
Neighbor list builds = 416151
Dangerous builds = 0


write_restart   restart.${NAME}
write_restart   restart.mol
PPPM initialization ...
  using 12-bit tables for long-range coulomb (src/kspace.cpp:332)
  G vector (1/distance) = 0.3803
  grid = 12 12 12
  stencil order = 5
  estimated absolute RMS force accuracy = 0.0233741
  estimated relative force accuracy = 7.03904e-05
  using double precision KISS FFT
  3d grid and FFT values/proc = 3211 432
write_data	data.*
PPPM initialization ...
  using 12-bit tables for long-range coulomb (src/kspace.cpp:332)
  G vector (1/distance) = 0.3803
  grid = 12 12 12
  stencil order = 5
  estimated absolute RMS force accuracy = 0.0233741
  estimated relative force accuracy = 7.03904e-05
  using double precision KISS FFT
  3d grid and FFT values/proc = 3211 432
Total wall time: 1:27:44
