LAMMPS data file via write_data, version 3 Mar 2020, timestep = 10000000

294 atoms
8 atom types
226 bonds
5 bond types
275 angles
8 angle types
270 dihedrals
6 dihedral types

0.0000000000000000e+00 1.5436100000000000e+01 xlo xhi
0.0000000000000000e+00 1.5394000000000000e+01 ylo yhi
0.0000000000000000e+00 1.5438000000000001e+01 zlo zhi

Masses

1 6.941
2 16
3 19
4 12.01
5 32.06
6 14.01
7 16
8 1.008

Pair Coeffs # lj/cut/coul/long

1 0.0182661 2.126
2 0.209859 2.96
3 0.0609584 3.118
4 0.109326 3.4
5 0.249833 3.564
6 0.169886 3.25
7 0.155323 3.165
8 0 0

Bond Coeffs # harmonic

1 492.67 1.466
2 363.556 1.344
3 248.733 1.782
4 256.929 1.752
5 529.23 1.012

Angle Coeffs # harmonic

1 41.2526 108.48
2 45.27 121.88
3 43.0716 107.06
4 81.1647 109.67
5 71.2115 107.16
6 39.3938 103.12
7 109.646 119.18
8 37.9249 113.24

Dihedral Coeffs # charmm

1 0.143897 3 0 0
2 0.143897 3 0 0
3 0.499666 3 180 0
4 6.79545 1 180 0
5 0.499666 3 180 0
6 6.79545 1 180 0

Atoms # full

92 15 2 -4.6100000000000002e-01 1.2933228164606589e+00 2.4309567029969732e+00 6.0871543348969785e+00 -1 0 -1
201 37 8 4.0999999999999998e-01 5.7391915428950284e+00 4.8980495445406627e+00 4.7059197808910538e+00 2 -1 -3
212 41 8 4.0999999999999998e-01 5.0627733751545119e+00 1.1432750262641276e+00 6.1936814611384143e+00 1 -4 3
211 41 7 -8.1999999999999995e-01 4.8373635306703520e+00 1.6908499520564759e+00 7.0323524746594162e+00 1 -4 3
94 15 5 9.1100000000000003e-01 1.0988223972613240e+00 3.4744831245166297e+00 5.0938128685425035e+00 -1 0 -1
99 15 3 -1.3800000000000001e-01 3.5512096831104802e+00 3.0046641564667929e+00 4.5510583464387349e+00 -1 0 -1
170 27 8 4.0999999999999998e-01 5.1922493700941503e+00 2.5637819549208989e+00 6.8148270986284643e-01 -1 0 4
199 37 7 -8.1999999999999995e-01 6.0478235048501947e+00 4.0684417337232643e+00 5.2180474485315766e+00 2 -1 -3
97 15 3 -1.3800000000000001e-01 2.1622190715445893e+00 2.4668321582457406e+00 2.9143597698025161e+00 -1 0 -1
98 15 4 3.1900000000000001e-01 2.4079103672477351e+00 3.3518504182594158e+00 3.9145126589641750e+00 -1 0 -1
169 27 7 -8.1999999999999995e-01 5.8501905147658428e+00 2.6151242375934696e+00 1.3777917407463043e+00 -1 0 4
200 37 8 4.0999999999999998e-01 5.6358367453785778e+00 3.2433710501514867e+00 4.7884026749642601e+00 2 -1 -3
171 27 8 4.0999999999999998e-01 6.5848688949158545e+00 1.9394281328500458e+00 1.1261972285566626e+00 -1 0 4
4 4 1 8.0000000000000004e-01 5.1678839355651434e+00 4.1442099378816470e+00 7.3096222838121392e+00 -3 -2 1
96 15 3 -1.3800000000000001e-01 2.6135706935336684e+00 4.5448379026688057e+00 3.3006010338248095e+00 -1 0 -1
91 15 6 -5.8799999999999997e-01 9.9378812311434706e-01 4.8846242728163185e+00 6.1466098607906092e+00 -1 0 -1
290 67 8 4.0999999999999998e-01 7.5687048733133659e+00 3.4748281354905721e+00 1.6682125808540096e+00 -2 -2 2
166 26 7 -8.1999999999999995e-01 1.6620039634887558e+00 1.2292210633811781e-01 4.6820509056816970e+00 0 1 -1
167 26 8 4.0999999999999998e-01 1.2374376099211222e+00 9.3415927339422267e-01 5.2170481951614187e+00 0 1 -1
213 41 8 4.0999999999999998e-01 4.6320024918927860e+00 9.2570210536228492e-01 7.6937323140532508e+00 1 -4 3
164 25 8 4.0999999999999998e-01 6.4809437814614599e+00 7.2913373039866300e+00 7.1587162578209904e+00 -2 -5 1
144 18 3 -1.3800000000000001e-01 5.5069446101181798e+00 5.6970653467719146e+00 1.0512308501913652e+00 -1 0 0
89 15 2 -4.6100000000000002e-01 3.5497477933218637e+00 5.2711679535530855e+00 5.9595550968301039e+00 -1 0 -1
141 18 3 -1.3800000000000001e-01 5.4202498748451422e+00 7.6386423800026391e+00 1.5208305539509248e-01 -1 0 0
90 15 3 -1.3800000000000001e-01 3.1384692677164212e+00 8.4829022102929699e+00 5.7478590771618236e+00 -1 0 -1
196 36 7 -8.1999999999999995e-01 8.3509852991247066e-02 5.6202297236128569e+00 9.2896681530535083e-02 -2 1 -2
163 25 7 -8.1999999999999995e-01 6.4693536373584459e+00 6.2878792848137737e+00 7.3869217970124801e+00 -2 -5 1
130 18 2 -4.6100000000000002e-01 6.9348453710257756e+00 9.7481006261054368e+00 1.5696061864333981e+00 -1 0 0
137 18 2 -4.6100000000000002e-01 5.3494634280758442e+00 6.4949266278557403e+00 3.9703291816158615e+00 -1 0 0
143 18 4 3.1900000000000001e-01 5.0386136942038418e+00 6.9121758986797861e+00 1.2519995191506055e+00 -1 0 0
139 18 5 9.1100000000000003e-01 5.5238116443741019e+00 7.4844711806823296e+00 2.8589774818733522e+00 -1 0 0
140 18 2 -4.6100000000000002e-01 4.9744855000930492e+00 8.8264024036267870e+00 3.0177631323709644e+00 -1 0 0
88 15 5 9.1100000000000003e-01 2.3492366327706202e+00 6.0110145973430260e+00 6.3413906128828978e+00 -1 0 -1
86 15 3 -1.3800000000000001e-01 2.0723244178414917e+00 7.4672193432748113e+00 4.1754486849027730e+00 -1 0 -1
87 15 4 3.1900000000000001e-01 2.1274599632196742e+00 7.5764874639489008e+00 5.4576909722802256e+00 -1 0 -1
142 18 3 -1.3800000000000001e-01 3.6762688308935081e+00 6.7836850169483025e+00 1.0817374894371361e+00 -1 0 0
136 18 6 -5.8799999999999997e-01 7.2680346042196184e+00 7.5875665064154729e+00 2.9319982693252720e+00 -1 0 0
93 15 3 -1.3800000000000001e-01 9.5894808501667628e-01 8.1185895745851848e+00 5.8108686259558748e+00 -1 0 -1
100 16 2 -4.6100000000000002e-01 4.6551416641140864e-01 8.1228221224495325e+00 1.5241334396250292e+00 1 -1 -1
197 36 8 4.0999999999999998e-01 6.2589897742872058e-01 6.2776404455555248e+00 6.9670422715314628e-01 -2 1 -2
218 43 8 4.0999999999999998e-01 3.0670347108712872e+00 1.0170621314109246e+01 3.9474512508490709e+00 1 1 -1
239 50 8 4.0999999999999998e-01 6.7846348972630182e+00 1.0186612276886875e+01 5.3919414357547302e+00 -3 3 0
273 61 8 4.0999999999999998e-01 1.0168510298042492e-01 1.1042237718938379e+01 9.7301018585966870e-01 2 -1 -2
157 23 7 -8.1999999999999995e-01 5.7629294740442010e+00 1.5031724828734228e+01 5.0921475775855285e+00 -1 -1 0
271 61 7 -8.1999999999999995e-01 7.2024044062989678e-01 1.1751457727653152e+01 6.7419732522822906e-01 2 -1 -2
158 23 8 4.0999999999999998e-01 6.1475003518775964e+00 1.5171633504698523e+01 4.1807100929208376e+00 -1 -1 0
203 38 8 4.0999999999999998e-01 4.3753772859582281e+00 1.3957582561705003e+01 1.5074937949742786e+00 0 -2 -1
14 10 2 -4.6100000000000002e-01 9.0737801230749648e-02 1.3204150052502612e+01 5.5695187587733548e+00 1 -1 0
159 23 8 4.0999999999999998e-01 6.5025976763083024e+00 1.4815280458288012e+01 5.7431630871445298e+00 -1 -1 0
217 43 7 -8.1999999999999995e-01 2.3410066069603737e+00 1.0851929322153548e+01 3.9233521752133851e+00 1 1 -1
258 56 8 4.0999999999999998e-01 2.0232526997561520e+00 1.3947217075442495e+01 1.8413166739384654e+00 -5 0 -1
224 45 8 4.0999999999999998e-01 7.3629675957615506e+00 1.3204954091203968e+01 6.9369836897565778e+00 1 -3 0
240 50 8 4.0999999999999998e-01 5.6125904615980033e+00 1.0543053088359677e+01 4.3868074124835994e+00 -3 3 0
219 43 8 4.0999999999999998e-01 1.3656366818686443e+00 1.0519794262116436e+01 3.7259346339672681e+00 1 1 -1
253 55 7 -8.1999999999999995e-01 3.4995231824856790e+00 1.3514823988111283e+01 5.4170634936972180e+00 2 -1 2
238 50 7 -8.1999999999999995e-01 5.8471799065194450e+00 1.0621627095478361e+01 5.3761095317038992e+00 -3 3 0
255 55 8 4.0999999999999998e-01 4.4316748414567506e+00 1.3845738912922448e+01 5.0823684287582314e+00 2 -1 2
266 59 8 4.0999999999999998e-01 5.4823509228613334e+00 1.2355658864385200e+01 7.4483601656440968e-02 -2 -2 3
202 38 7 -8.1999999999999995e-01 3.5065582319275492e+00 1.3977126039864370e+01 9.2970414618663166e-01 0 -2 -1
34 11 5 9.1100000000000003e-01 7.6486297864373416e+00 1.3618806414143611e+01 1.8095986103399906e+00 1 -3 1
267 59 8 4.0999999999999998e-01 6.0523808746962002e+00 1.0856941291413568e+01 5.5164537129217950e-01 -2 -2 3
256 56 7 -8.1999999999999995e-01 1.2430556484888708e+00 1.3580961344272266e+01 2.3772702851617167e+00 -5 0 -1
31 11 6 -5.8799999999999997e-01 6.4763396756754306e+00 1.3733442157806000e+01 5.7736311196717938e-01 1 -3 1
35 11 2 -4.6100000000000002e-01 6.8028011896922553e+00 1.2861562520947256e+01 2.7646668533204029e+00 1 -3 1
177 29 8 4.0999999999999998e-01 4.8934846764475024e+00 1.1212519563217501e+01 6.4812715981088651e+00 -3 0 -5
3 3 1 8.0000000000000004e-01 8.9805812704780053e-02 1.5050340697034136e+01 3.5933908180025749e+00 2 -1 1
265 59 7 -8.1999999999999995e-01 5.2214475874440103e+00 1.1320601706015585e+01 1.3824828764501459e-01 -2 -2 3
257 56 8 4.0999999999999998e-01 9.6037954426075467e-01 1.2779962808820692e+01 1.8379096317112789e+00 -5 0 -1
254 55 8 4.0999999999999998e-01 3.7567303352239847e+00 1.2823769274456833e+01 6.1558152664230743e+00 2 -1 2
175 29 7 -8.1999999999999995e-01 4.2924156586298388e+00 1.1367787595388622e+01 7.2891398589821881e+00 -3 0 -5
168 26 8 4.0999999999999998e-01 2.5297288248695211e+00 1.5264135330824649e+01 5.2039161533663929e+00 0 0 -1
5 5 1 8.0000000000000004e-01 1.8597742987996777e+00 1.2959816836067303e+01 4.3579230444257018e+00 1 1 0
6 6 1 8.0000000000000004e-01 3.2334183460406245e+00 1.1489010414085575e+01 3.2019967311072151e-02 1 -1 -4
204 38 8 4.0999999999999998e-01 3.6437947970525499e+00 1.4768489976258527e+01 2.9991407877427356e-01 0 -2 -1
190 34 7 -8.1999999999999995e-01 1.8850308362793866e+00 3.2012849456983368e+00 9.1800237246761576e+00 1 0 -1
148 20 7 -8.1999999999999995e-01 5.0324373208971709e+00 2.1875300747921900e+00 1.0461867395755762e+01 -3 0 -2
48 12 3 -1.3800000000000001e-01 2.8910072538280858e+00 2.2026933661152812e+00 1.5315657067869394e+01 0 0 -1
192 34 8 4.0999999999999998e-01 1.2430120987368409e+00 3.8965937576720799e+00 9.5537302885352986e+00 1 0 -1
44 12 2 -4.6100000000000002e-01 1.9315450273546553e+00 7.5299518047744896e-01 1.1803450498738071e+01 0 0 -1
281 64 8 4.0999999999999998e-01 3.1032097609288329e+00 4.4944771674971928e+00 9.1776546523979015e+00 -1 2 -3
280 64 7 -8.1999999999999995e-01 4.1493924692353268e+00 4.7288495724379906e+00 9.0579440115476473e+00 -1 2 -3
82 14 3 -1.3800000000000001e-01 6.9888340915174094e+00 3.1925269599347401e+00 1.4000222257815400e+01 -1 0 0
43 12 5 9.1100000000000003e-01 2.1743778465481562e+00 7.2473271360690750e-01 1.3266490189653117e+01 0 0 -1
1 1 1 8.0000000000000004e-01 2.8908079380179763e+00 1.4714117134840341e+00 1.0177646357564486e+01 0 1 -1
282 64 8 4.0999999999999998e-01 4.8443796017892309e+00 4.2837888228420420e+00 9.7501211744012171e+00 -1 2 -3
45 12 3 -1.3800000000000001e-01 3.8230574240752615e+00 2.7717306180302983e+00 1.3360568876801519e+01 0 0 -1
42 12 4 3.1900000000000001e-01 2.7094182258610955e+00 2.3017582525994551e+00 1.3933578873330283e+01 0 0 -1
150 20 8 4.0999999999999998e-01 5.4798453475662576e+00 1.7837764509620682e+00 9.6794715628546779e+00 -3 0 -2
25 11 2 -4.6100000000000002e-01 5.6062730558572831e+00 4.0188177552199505e-01 1.4892460612717647e+01 1 -2 0
41 12 3 -1.3800000000000001e-01 1.7712539793866493e+00 3.2377113869894885e+00 1.3609812133638883e+01 0 0 -1
149 20 8 4.0999999999999998e-01 5.6337913404127642e+00 2.9576886783801557e+00 1.0788276445748467e+01 -3 0 -2
191 34 8 4.0999999999999998e-01 1.6635065671653904e+00 3.1042969171113057e+00 8.1758459483241808e+00 1 0 -1
80 14 2 -4.6100000000000002e-01 6.5925038309580826e+00 4.3094646822063130e+00 1.1040691915796693e+01 -1 0 0
161 24 8 4.0999999999999998e-01 1.4819352629755365e+00 2.1787235478980735e-01 8.2039994546093560e+00 2 1 -1
160 24 7 -8.1999999999999995e-01 2.4722805772094456e+00 3.2455457890424722e-01 8.5320909413696526e+00 2 1 -1
243 51 8 4.0999999999999998e-01 7.5159730930428745e+00 3.7005934327875907e+00 9.0701745287230366e+00 -3 -3 4
46 12 6 -5.8799999999999997e-01 7.0292140441045514e-01 2.9709467284829183e-01 1.4019246880755547e+01 0 0 -1
241 51 7 -8.1999999999999995e-01 7.0644629988068219e+00 3.5271400140330447e+00 8.1317969105283634e+00 -3 -3 4
83 14 4 3.1900000000000001e-01 7.5242633324567993e+00 4.3595094452155143e+00 1.3623744254339920e+01 -1 0 0
242 51 8 4.0999999999999998e-01 7.4552237536895474e+00 2.6282614492189205e+00 7.8624093991236652e+00 -3 -3 4
84 14 3 -1.3800000000000001e-01 6.6345077155330383e+00 5.2626222321275780e+00 1.4032012292026424e+01 -1 0 0
145 19 7 -8.1999999999999995e-01 2.7552549936338355e+00 9.5076966764224338e+00 1.4789630052378708e+01 -1 -2 -1
165 25 8 4.0999999999999998e-01 6.6577678640775257e+00 6.2453423166827724e+00 8.3487556530806284e+00 -2 -5 1
125 17 2 -4.6100000000000002e-01 1.8687757062782655e+00 5.2384446974721950e+00 1.1338313878464600e+01 0 0 -2
198 36 8 4.0999999999999998e-01 3.8082187195497913e-01 5.7058896202066629e+00 1.4559322721420418e+01 -2 1 -3
127 17 3 -1.3800000000000001e-01 4.0852537110904272e+00 7.2017908170401777e+00 1.0600026168703899e+01 0 0 -2
129 17 3 -1.3800000000000001e-01 4.5112679728860980e+00 6.3035890295690802e+00 1.2472952246270323e+01 0 0 -2
119 17 2 -4.6100000000000002e-01 1.2524117873592184e+00 9.5347829581133663e+00 1.0088117258902541e+01 0 0 -2
126 17 3 -1.3800000000000001e-01 3.9018831481942473e+00 8.3749106134994680e+00 1.2385648341699051e+01 0 0 -2
124 17 5 9.1100000000000003e-01 1.9782171545094507e+00 6.5528281309078196e+00 1.1970058071633131e+01 0 0 -2
128 17 4 3.1900000000000001e-01 3.6801531673566896e+00 7.1606242118129835e+00 1.1839337900268838e+01 0 0 -2
122 17 2 -4.6100000000000002e-01 1.4890149917284183e+00 6.8200942144611361e+00 1.3377464109508150e+01 0 0 -2
121 17 6 -5.8799999999999997e-01 8.9891780616714523e-01 7.3770846531021599e+00 1.0937408160033208e+01 0 0 -2
115 17 2 -4.6100000000000002e-01 1.0112456505004355e+00 9.3314381378744979e+00 1.2548694529622349e+01 0 0 -2
118 17 5 9.1100000000000003e-01 5.5553300007195039e-01 8.9702669882985226e+00 1.1217021620540002e+01 0 0 -2
293 68 8 4.0999999999999998e-01 8.1002899536242678e-01 5.5730310345946465e+00 8.2577309694333607e+00 -1 -1 0
147 19 8 4.0999999999999998e-01 1.8544064974717633e+00 9.4557891607127953e+00 1.4389331686325338e+01 -1 -2 -1
292 68 7 -8.1999999999999995e-01 8.2315923249165479e-02 5.6300930772104651e+00 9.0300674256335078e+00 -1 -1 0
61 13 6 -5.8799999999999997e-01 7.3542270568728592e+00 1.0216485196212966e+01 9.5990368646930087e+00 -1 0 -1
188 33 8 4.0999999999999998e-01 3.9732832954202153e+00 1.0149849910274085e+01 1.0327005976324303e+01 -3 0 0
62 13 2 -4.6100000000000002e-01 7.6447584858792750e+00 7.7405421951321536e+00 9.8672615096476246e+00 -1 0 -1
146 19 8 4.0999999999999998e-01 3.4226456752680186e+00 9.1625372471067283e+00 1.4109793305570733e+01 -1 -2 -1
85 15 2 -4.6100000000000002e-01 2.2375291214317943e+00 6.3218440056065326e+00 7.7459191452495526e+00 -1 0 -1
294 68 8 4.0999999999999998e-01 4.7100840081540574e-01 6.4024986412067211e+00 9.6108733634773689e+00 -1 -1 0
59 13 2 -4.6100000000000002e-01 7.2319018419197922e+00 1.2761705910488155e+01 9.7441504228203897e+00 -1 0 -1
51 12 3 -1.3800000000000001e-01 2.7327630997856783e-01 1.2935869543741767e+01 1.2565568946741902e+01 0 -1 -1
162 24 8 4.0999999999999998e-01 2.7634291687541670e+00 1.4725647906544605e+01 8.6944767142807997e+00 2 0 -1
227 46 8 4.0999999999999998e-01 3.7227802071281033e+00 1.2468719548524215e+01 8.4610476860884454e+00 -4 -4 0
52 12 3 -1.3800000000000001e-01 3.5430792661826138e-01 1.4219126787092696e+01 1.0814833512652431e+01 0 -1 -1
27 11 4 3.1900000000000001e-01 6.9125229018920136e+00 1.4105774240995222e+01 1.3211871891229588e+01 1 -3 0
205 39 7 -8.1999999999999995e-01 5.5667459638628962e+00 1.4977157520910454e+01 9.2270641205051493e+00 1 -2 -3
30 11 3 -1.3800000000000001e-01 6.7261554088343196e+00 1.4920145221276890e+01 1.2183759456918382e+01 1 -3 0
276 62 8 4.0999999999999998e-01 3.2411144753442369e+00 1.3278207202134775e+01 1.3461617674549371e+01 0 4 0
206 39 8 4.0999999999999998e-01 6.5154264320967465e+00 1.4636995510383700e+01 9.4154004095141843e+00 1 -2 -3
40 12 2 -4.6100000000000002e-01 3.0621850861638449e+00 1.4983298241183507e+01 1.3675972439615947e+01 0 -1 -1
274 62 7 -8.1999999999999995e-01 3.0827062021047631e+00 1.2260357896720388e+01 1.3468788741673935e+01 0 4 0
28 11 5 9.1100000000000003e-01 6.7818589884845561e+00 1.4976858954276342e+01 1.4788449674417313e+01 1 -3 0
226 46 7 -8.1999999999999995e-01 3.1414435984365534e+00 1.3118767129993172e+01 9.0233066150597629e+00 -4 -4 0
189 33 8 4.0999999999999998e-01 2.5490354718170321e+00 1.0553342435985600e+01 1.0850520073495673e+01 -3 0 0
207 39 8 4.0999999999999998e-01 4.9007753048592981e+00 1.4196545124668734e+01 9.3297015684535509e+00 1 -2 -3
187 33 7 -8.1999999999999995e-01 3.5108443189976399e+00 1.0881170308566933e+01 1.0882304562187104e+01 -3 0 0
275 62 8 4.0999999999999998e-01 3.4391913755973365e+00 1.1769633736898033e+01 1.2657491456042656e+01 0 4 0
33 11 3 -1.3800000000000001e-01 6.0195616360398692e+00 1.3134653818350953e+01 1.3220143438218168e+01 1 -3 0
228 46 8 4.0999999999999998e-01 2.7359541707380073e+00 1.2516900992593524e+01 9.7312303312710977e+00 -4 -4 0
18 10 3 -1.3800000000000001e-01 3.6685084381116506e-01 1.2024551229807049e+01 8.1537156506190716e+00 1 -1 0
272 61 8 4.0999999999999998e-01 6.3558030402483057e-01 1.1782814722301147e+01 1.5081075077091540e+01 2 -1 -3
176 29 8 4.0999999999999998e-01 4.0730145620204059e+00 1.0485484012923321e+01 7.7771868446531895e+00 -3 0 -5
193 35 7 -8.1999999999999995e-01 1.0738903218380047e+01 4.7474362898860329e+00 1.7584898361513472e+00 1 3 -1
194 35 8 4.0999999999999998e-01 9.7962521208658480e+00 4.3470401731426218e+00 1.8762811765775986e+00 1 3 -1
172 28 7 -8.1999999999999995e-01 9.6227826690666554e+00 3.3799720588059392e+00 6.6914367348531512e+00 -1 4 2
20 10 2 -4.6100000000000002e-01 1.4289974871534305e+01 6.3657132963640484e-01 5.2280547085753124e+00 0 0 0
9 9 1 8.0000000000000004e-01 1.2221160043914054e+01 3.5638160717507970e+00 7.5262813099337245e-01 -4 2 3
173 28 8 4.0999999999999998e-01 9.6837830130041045e+00 2.6356615922638489e+00 7.3255713446644846e+00 -1 4 2
216 42 8 4.0999999999999998e-01 1.3542870644189358e+01 3.2546184123556481e+00 4.6641920896996734e+00 2 0 2
214 42 7 -8.1999999999999995e-01 1.2526374975750336e+01 3.1583768404693275e+00 4.5704223184151420e+00 2 0 2
174 28 8 4.0999999999999998e-01 1.0515755045716288e+01 3.9026484649643427e+00 6.7505791126136421e+00 -1 4 2
95 15 2 -4.6100000000000002e-01 1.5328980123257418e+01 3.6835251273954372e+00 4.2204437322017760e+00 -2 0 -1
289 67 7 -8.1999999999999995e-01 8.5951200510085606e+00 3.3712830346792395e+00 1.9409871894521062e+00 -2 -2 2
231 47 8 4.0999999999999998e-01 9.3520300130085587e+00 9.1879710054391761e-01 4.5017530324270467e+00 -1 3 0
283 65 7 -8.1999999999999995e-01 1.2282830846093688e+01 9.5036111662643574e-01 2.7932217636806991e+00 -3 -4 3
284 65 8 4.0999999999999998e-01 1.1538377006589068e+01 9.1651135035559383e-01 2.0701072496651403e+00 -3 -4 3
215 42 8 4.0999999999999998e-01 1.2333329452152457e+01 2.3123344853314514e+00 4.0968018488483722e+00 2 0 2
181 31 7 -8.1999999999999995e-01 1.4209835301797469e+01 3.5202464482046802e+00 1.6721194933017891e+00 -3 1 1
180 30 8 4.0999999999999998e-01 8.2390085819713477e+00 2.1467233940581606e-01 7.4552752162860312e+00 -3 1 0
259 57 7 -8.1999999999999995e-01 1.0390057346633403e+01 1.2688399830800103e+00 8.3527223288768071e-01 1 -1 -1
285 65 8 4.0999999999999998e-01 1.2811882868058039e+01 9.2228114698379215e-02 2.7718650041833506e+00 -3 -4 3
261 57 8 4.0999999999999998e-01 9.7580683402294888e+00 1.8964796278292702e+00 1.3576013580592192e+00 1 -1 -1
229 47 7 -8.1999999999999995e-01 8.8962472915353974e+00 1.8210446923875585e+00 4.4887362305053209e+00 -1 3 0
230 47 8 4.0999999999999998e-01 9.1806032377761433e+00 2.3023705879133578e+00 5.3049366854100315e+00 -1 3 0
291 67 8 4.0999999999999998e-01 8.6905546980362907e+00 2.7461973000706226e+00 2.7444735792008337e+00 -2 -2 2
248 53 8 4.0999999999999998e-01 1.1437117256367483e+01 4.5047820642132113e+00 4.7979220246979439e+00 0 -2 -3
21 10 3 -1.3800000000000001e-01 1.1768020617069448e+01 1.2704384231650634e+00 7.0545016790054742e+00 0 0 0
17 10 2 -4.6100000000000002e-01 1.5394271289209630e+01 1.3826858749616197e-01 7.4088300412370591e+00 0 0 0
23 10 4 3.1900000000000001e-01 1.2997274340289955e+01 1.4366913838702020e+00 7.6181549059585096e+00 0 0 0
260 57 8 4.0999999999999998e-01 9.7143122150890910e+00 7.5266325472277007e-01 2.8098137542374563e-01 1 -1 -1
155 22 8 4.0999999999999998e-01 1.4572699479466779e+01 1.5431125967373145e+00 1.8216587430801481e+00 -2 1 1
183 31 8 4.0999999999999998e-01 1.4280603000809975e+01 3.5384124262286814e+00 2.6971678676557040e+00 -3 1 1
154 22 7 -8.1999999999999995e-01 1.5081549034789717e+01 6.3028376662846275e-01 1.7288096100869137e+00 -2 1 1
19 10 5 9.1100000000000003e-01 1.4159336086903000e+01 3.7584597192155383e-01 6.6660229041674288e+00 0 0 0
7 7 1 8.0000000000000004e-01 7.8293164663519734e+00 4.8371834930867390e+00 6.3911369270103071e+00 1 -2 -2
22 10 3 -1.3800000000000001e-01 1.3308681211033996e+01 2.7686474824551652e+00 7.5668785308781121e+00 0 0 0
182 31 8 4.0999999999999998e-01 1.4789084023448156e+01 4.1804019523175002e+00 1.1774408829318903e+00 -3 1 1
156 22 8 4.0999999999999998e-01 1.5119092176712625e+01 2.9939943220565673e-01 7.9739951649965479e-01 -2 1 1
269 60 8 4.0999999999999998e-01 8.9781882738710959e+00 9.5939469668502362e+00 5.9218561529376217e+00 -2 -1 3
247 53 7 -8.1999999999999995e-01 1.1192533492389842e+01 5.3670877075714269e+00 5.3654141093108905e+00 0 -2 -3
249 53 8 4.0999999999999998e-01 1.0180314732206378e+01 5.5396029583669533e+00 5.2972064337614944e+00 0 -2 -3
195 35 8 4.0999999999999998e-01 1.0783468967093217e+01 5.7118211390783049e+00 2.1490920611731230e+00 1 3 -1
220 44 7 -8.1999999999999995e-01 1.3842783398336488e+01 6.2543920540617473e+00 7.0830564327037679e+00 1 1 -5
108 16 3 -1.3800000000000001e-01 1.4452697163520146e+01 6.7595549160506874e+00 3.8015214733110252e+00 0 -1 -1
262 58 7 -8.1999999999999995e-01 1.0886215413979604e+01 8.3312901861457433e+00 7.0529209070116732e+00 1 3 0
153 21 8 4.0999999999999998e-01 1.0107787152978629e+01 1.0176523556166913e+01 4.4015348595154800e+00 1 -1 0
235 49 7 -8.1999999999999995e-01 8.7667652562092950e+00 6.6271265476325683e+00 5.4462929738860968e+00 -3 5 2
237 49 8 4.0999999999999998e-01 9.0834303992665610e+00 7.3659592083613745e+00 6.0480833353860293e+00 -3 5 2
132 18 4 3.1900000000000001e-01 8.9336521104448181e+00 8.1478779510408685e+00 6.2674205334732802e-01 -1 0 0
138 18 3 -1.3800000000000001e-01 9.8221724190859323e+00 7.2375550572868761e+00 1.1676625627123929e+00 -1 0 0
102 16 4 3.1900000000000001e-01 1.3726005703791040e+01 7.7023253633401154e+00 3.0852211596006134e+00 0 -1 -1
101 16 3 -1.3800000000000001e-01 1.3132792689883876e+01 7.0015074537879984e+00 2.1252764983773145e+00 0 -1 -1
103 16 5 9.1100000000000003e-01 1.4891995714578936e+01 8.8112122436022062e+00 2.3335113590382521e+00 0 -1 -1
105 16 3 -1.3800000000000001e-01 1.2915317560028523e+01 8.2893961123317332e+00 3.9933479438805981e+00 0 -1 -1
109 16 5 9.1100000000000003e-01 1.2617914803101980e+01 9.6340218117313992e+00 4.8867311813867736e-01 0 -1 -1
106 16 6 -5.8799999999999997e-01 1.4290463841603779e+01 9.5553572298628566e+00 8.3877819657509733e-01 0 -1 -1
110 16 2 -4.6100000000000002e-01 1.1962272796250556e+01 9.7676665439058254e+00 1.8084857982655715e+00 0 -1 -1
8 8 1 8.0000000000000004e-01 1.1781308658343844e+01 6.5299847089065945e+00 7.0620984446788713e+00 0 1 1
263 58 8 4.0999999999999998e-01 1.1098275304038513e+01 9.1884529145414504e+00 6.4972193660678705e+00 1 3 0
222 44 8 4.0999999999999998e-01 1.4351576073647671e+01 6.3450921455795903e+00 6.2129208406671843e+00 1 1 -5
104 16 2 -4.6100000000000002e-01 1.5286917386625166e+01 9.8612774543181132e+00 3.2342051853949352e+00 0 -1 -1
268 60 7 -8.1999999999999995e-01 8.0992925246694316e+00 9.2699520927846919e+00 6.3223286593747288e+00 -2 -1 3
134 18 2 -4.6100000000000002e-01 8.8418663909425419e+00 9.5404613727010066e+00 3.0267660269858956e+00 -1 0 0
133 18 5 9.1100000000000003e-01 8.0125694407748487e+00 8.8720826521072009e+00 2.0294101350149898e+00 -1 0 0
270 60 8 4.0999999999999998e-01 7.7769375473353204e+00 9.9284458706789422e+00 7.0458262311574806e+00 -2 -1 3
236 49 8 4.0999999999999998e-01 8.0796510439472868e+00 6.9497404550433295e+00 4.7968821603272067e+00 -3 5 2
244 52 7 -8.1999999999999995e-01 1.0725052864134241e+01 1.4508736063743671e+01 5.1608069724806409e+00 1 -3 -1
246 52 8 4.0999999999999998e-01 1.0897256272718156e+01 1.4324068174503136e+01 4.1601515128922015e+00 1 -3 -1
37 11 3 -1.3800000000000001e-01 9.8383066039135674e+00 1.3436489123782101e+01 4.6748451359707038e-01 1 -3 1
225 45 8 4.0999999999999998e-01 8.6271344925719742e+00 1.3950743351454527e+01 6.2442275578288395e+00 1 -3 0
36 11 3 -1.3800000000000001e-01 9.7488948421158135e+00 1.2058175231990658e+01 2.1726087312715681e+00 1 -3 1
55 13 2 -4.6100000000000002e-01 7.9511801659247379e+00 1.1681125826581841e+01 7.5780293322075840e+00 -1 0 -1
279 63 8 4.0999999999999998e-01 1.2992617933551713e+01 1.3041474636943857e+01 3.6920467496500775e+00 2 -3 -2
112 16 3 -1.3800000000000001e-01 1.2352682536919058e+01 1.2256179217627457e+01 1.5981421222937647e-01 0 -1 -1
32 11 2 -4.6100000000000002e-01 7.9882525910305997e+00 1.4934291942061961e+01 2.3581343168292621e+00 1 -3 1
151 21 7 -8.1999999999999995e-01 1.0315626990996943e+01 1.0531601565665028e+01 5.3345347811555817e+00 1 -1 0
11 10 3 -1.3800000000000001e-01 1.4091275013376665e+01 1.0758440245469844e+01 7.5894843368552749e+00 0 -1 0
152 21 8 4.0999999999999998e-01 1.0646407050346628e+01 1.1475639628603393e+01 5.1637163829684258e+00 1 -1 0
10 10 2 -4.6100000000000002e-01 1.3187425779379151e+01 1.2255839868746573e+01 5.2927597427379123e+00 0 -1 0
245 52 8 4.0999999999999998e-01 1.1697087725057218e+01 1.4748951687643221e+01 5.5254036620808487e+00 1 -3 -1
38 11 4 3.1900000000000001e-01 9.0032654281519324e+00 1.2645976573956013e+01 1.1648311433325391e+00 1 -3 1
16 10 6 -5.8799999999999997e-01 1.3297431820445176e+01 1.4314976288535824e+01 6.5031417496153372e+00 0 -1 0
278 63 8 4.0999999999999998e-01 1.3002084238003951e+01 1.3028072671767310e+01 1.9459725670844761e+00 2 -3 -2
277 63 7 -8.1999999999999995e-01 1.3007971463869087e+01 1.3604067924839345e+01 2.7956698992915809e+00 2 -3 -2
39 11 3 -1.3800000000000001e-01 8.6088674420291529e+00 1.1703508193046041e+01 3.4215262091703647e-01 1 -3 1
13 10 5 9.1100000000000003e-01 1.4207323968781052e+01 1.2896066540753758e+01 6.2122761510112943e+00 0 -1 0
223 45 7 -8.1999999999999995e-01 7.7490486033708201e+00 1.4162317664393269e+01 6.6885187563851511e+00 1 -3 0
73 14 5 9.1100000000000003e-01 1.0150050794522194e+01 2.6669794735511521e+00 1.1127116739495307e+01 -1 0 0
74 14 2 -4.6100000000000002e-01 1.1048766069868607e+01 3.4893663781608324e+00 1.1942482558910433e+01 -1 0 0
70 14 2 -4.6100000000000002e-01 1.0251120186637531e+01 2.7856094462278000e+00 9.6599205165299047e+00 -1 0 0
76 14 6 -5.8799999999999997e-01 8.5078093334481384e+00 2.9558254346530664e+00 1.1371205608625264e+01 -1 0 0
252 54 8 4.0999999999999998e-01 1.4632621667355114e+01 4.5758819401707909e+00 1.0298685418200032e+01 0 -1 2
250 54 7 -8.1999999999999995e-01 1.4099816079952951e+01 4.1778391229748673e+00 1.1000658452261929e+01 0 -1 2
251 54 8 4.0999999999999998e-01 1.4269662668480155e+01 3.2570006466311221e+00 1.1302917658206086e+01 0 -1 2
81 14 3 -1.3800000000000001e-01 8.6312248415974118e+00 4.5600037865958196e+00 1.4328642619044773e+01 -1 0 0
71 14 3 -1.3800000000000001e-01 1.0383581978428015e+01 6.8792457187621092e-01 1.2797711229757910e+01 -1 0 0
72 14 4 3.1900000000000001e-01 1.0497475547407520e+01 8.8958178030199164e-01 1.1480601401376243e+01 -1 0 0
75 14 3 -1.3800000000000001e-01 1.1809070061366620e+01 5.2814571551795231e-01 1.1223931054199269e+01 -1 0 0
78 14 3 -1.3800000000000001e-01 9.6262271424404009e+00 1.1684285110129199e-01 1.0825960775387530e+01 -1 0 0
50 12 2 -4.6100000000000002e-01 1.4546687669511622e+01 1.2425733211075973e+00 1.2101620942958291e+01 -1 0 -1
288 66 8 4.0999999999999998e-01 1.2461418385076325e+01 1.8234709140239111e+00 1.3661180102205048e+01 -2 -2 3
2 2 1 8.0000000000000004e-01 1.2694996197009251e+01 4.8702807745895944e+00 1.2466246804390433e+01 -3 0 1
79 14 5 9.1100000000000003e-01 7.8551242413090963e+00 4.4434573122748633e+00 1.1789552721801487e+01 -1 0 0
29 11 2 -4.6100000000000002e-01 8.0934055339283191e+00 1.6332855694944667e-01 1.5073359329219597e+01 1 -2 0
178 30 7 -8.1999999999999995e-01 8.6875626997123447e+00 9.8687084761850918e-01 7.9951518428922110e+00 -3 1 0
234 48 8 4.0999999999999998e-01 1.0818168469491415e+01 4.5065930180016212e+00 9.1895507861637409e+00 1 0 -1
49 12 5 9.1100000000000003e-01 1.4725857044895536e+01 2.4268558057482403e-02 1.2953990848653964e+01 -1 0 -1
286 66 7 -8.1999999999999995e-01 1.2178999438883611e+01 2.3589592467255791e+00 1.4456557258127857e+01 -2 -2 3
24 10 3 -1.3800000000000001e-01 1.2805445082611252e+01 1.1923842227904955e+00 8.9120413332963206e+00 0 0 0
287 66 8 4.0999999999999998e-01 1.1541176907775755e+01 1.7651688514750847e+00 1.5014048013295922e+01 -2 -2 3
179 30 8 4.0999999999999998e-01 9.2043016026894744e+00 5.9364949533924560e-01 8.7538901318942699e+00 -3 1 0
233 48 8 4.0999999999999998e-01 1.0980238897979923e+01 6.0602128671120461e+00 9.3676320930090018e+00 1 0 -1
107 16 2 -4.6100000000000002e-01 1.2476906980544646e+01 8.2959868386271385e+00 1.5256513085769731e+01 0 -1 -2
185 32 8 4.0999999999999998e-01 1.3875624814307679e+01 5.6491808356477611e+00 1.5037393166122426e+01 -2 1 -1
186 32 8 4.0999999999999998e-01 1.2664469490951713e+01 6.6167877228262295e+00 1.4607297492350794e+01 -2 1 -1
208 40 7 -8.1999999999999995e-01 1.1432709222368214e+01 6.2827824704623110e+00 1.1901478012568955e+01 -1 1 0
232 48 7 -8.1999999999999995e-01 1.0852296637430230e+01 5.3886030984403837e+00 8.6422511245485030e+00 1 0 -1
184 32 7 -8.1999999999999995e-01 1.2969432225479242e+01 5.6002670601034650e+00 1.4573269101602721e+01 -2 1 -1
77 14 2 -4.6100000000000002e-01 8.8723153411286120e+00 5.4281301765480068e+00 1.1383707097598400e+01 -1 0 0
131 18 3 -1.3800000000000001e-01 9.7146602774838744e+00 8.9572830079585373e+00 1.5332521634702289e+01 -1 0 -1
65 13 2 -4.6100000000000002e-01 9.6532910499046718e+00 9.1270095260509692e+00 9.5387372553152510e+00 -1 0 -1
66 13 3 -1.3800000000000001e-01 9.9556912567538127e+00 8.6688579895656286e+00 1.2431068362075742e+01 -1 0 -1