variable        infile index data.mol
variable        mytemp index 298

# set up simulation
#read_restart    ${NAME}.restart.*

# the following information is saved to restart files
units           real
atom_style      full
boundary        p p p
pair_style      lj/cut/coul/long 7
kspace_style    pppm 0.0001
pair_modify     tail yes
pair_modify     mix arithmetic
special_bonds   amber

bond_style      harmonic
angle_style     harmonic
dihedral_style  charmm
#improper_style  cvff

read_data       ${infile}
read_data       data.mol
  orthogonal box = (0 0 0) to (15.4361 15.394 15.438)
  2 by 1 by 2 MPI processor grid
  reading atoms ...
  294 atoms
  reading velocities ...
  294 velocities
  scanning bonds ...
  4 = max bonds/atom
  scanning angles ...
  6 = max angles/atom
  scanning dihedrals ...
  12 = max dihedrals/atom
  reading bonds ...
  226 bonds
  reading angles ...
  275 angles
  reading dihedrals ...
  270 dihedrals
  4 = max # of 1-2 neighbors
  6 = max # of 1-3 neighbors
  12 = max # of 1-4 neighbors
  14 = max # of special neighbors
  special bonds CPU = 0.000539462 secs
  read_data CPU = 0.0140332 secs

#replicate       3 4 4

neighbor        2.0 bin
neigh_modify    delay 0 every 1 check yes page 1000000 one 20000
timestep        1.0
#velocity        all create ${mytemp} 314159265 mom yes rot yes dist gaussian

## end information that is saved to restart files

## create velocity profile
#minimize       1e-4 1e-6 10000 10000
#velocity        all create  ${mytemp} 314159265 units box
velocity        all zero linear units box
dump            DUMP all custom 1000 ${NAME}.lammpstrj id type x y z mol
dump            DUMP all custom 1000 mol.lammpstrj id type x y z mol
thermo_style    custom step vol temp press ke pe etotal enthalpy evdwl ecoul epair ebond eangle edihed eimp emol elong etail lx ly lz xy xz yz pxy pxz pyz pxx pyy pzz
thermo          1000
#
## thermostat and integrator

#fix             NPT all npt temp ${mytemp} ${mytemp} 100.0 iso 1.0 1.0 100.0
fix             NVT all nvt temp ${mytemp} ${mytemp} 100.0
fix             NVT all nvt temp 298 ${mytemp} 100.0
fix             NVT all nvt temp 298 298 100.0

restart         50000 restart.${NAME}.1 restart.${NAME}.2
restart         50000 restart.mol.1 restart.${NAME}.2
restart         50000 restart.mol.1 restart.mol.2
run             10000000
PPPM initialization ...
  using 12-bit tables for long-range coulomb (src/kspace.cpp:332)
  G vector (1/distance) = 0.383154
  grid = 12 12 12
  stencil order = 5
  estimated absolute RMS force accuracy = 0.0217689
  estimated relative force accuracy = 6.55565e-05
  using double precision KISS FFT
  3d grid and FFT values/proc = 3211 432
Neighbor list info ...
  update every 1 steps, delay 0 steps, check yes
  max neighbors/atom: 20000, page size: 1000000
  master list distance cutoff = 9
  ghost atom cutoff = 9
  binsize = 4.5, bins = 4 4 4
  1 neighbor lists, perpetual/occasional/extra = 1 0 0
  (1) pair lj/cut/coul/long, perpetual
      attributes: half, newton on
      pair build: half/bin/newton
      stencil: half/bin/3d/newton
      bin: standard
Per MPI rank memory allocation (min/avg/max) = 17.93 | 17.93 | 17.93 Mbytes
Step Volume Temp Press KinEng PotEng TotEng Enthalpy E_vdwl E_coul E_pair E_bond E_angle E_dihed E_impro E_mol E_long E_tail Lx Ly Lz Xy Xz Yz Pxy Pxz Pyz Pxx Pyy Pzz 
       0    3668.4289    310.45383   -444.13237    271.14334   -721.08003   -449.93669   -473.69789   -8.8109037    4715.9884   -1332.4812    82.827257    130.43804     398.1359            0     611.4012   -6039.6588   -33.444113      15.4361       15.394       15.438            0            0            0     2123.277   -1292.5977     2573.342   -1957.6901    1486.7156   -861.42263 
    1000    3668.4289    269.70907    828.12834    235.55779   -710.72475   -475.16696   -430.86187   -1.5227297    4707.4939   -1334.9424    98.158473     123.9894    402.06974            0    624.21761   -6040.9135   -33.444113      15.4361       15.394       15.438            0            0            0    1692.0395    2881.5683    4359.3294   -826.91603    4427.9322   -1116.6312 
    2000    3668.4289    303.24559   -2810.6065    264.84783   -730.20411   -465.35628   -615.72449    3.8268369    4689.6419   -1349.8556    102.57901    116.53138    400.54111            0     619.6515   -6043.3243   -33.444113      15.4361       15.394       15.438            0            0            0    814.33526   -694.90376    230.41771   -2779.4329   -403.01269   -5249.3738 
    3000    3668.4289     276.8554   -1134.9875    241.79924   -720.88922   -479.08998   -539.81212    13.015162    4676.5881   -1355.8815    90.154055    143.78452    401.05375            0    634.99233   -6045.4848   -33.444113      15.4361       15.394       15.438            0            0            0   -2188.2546   -692.73298     1899.351   -2214.6825   -1765.3576    575.07749 
    4000    3668.4289    304.44981    5183.0573    265.89957   -725.69321   -459.79365   -182.49867    4.3742815    4717.3861    -1323.357     78.52267    124.64752    394.49364            0    597.66383   -6045.1174   -33.444113      15.4361       15.394       15.438            0            0            0   -3800.7409    -1493.471   -2523.9891    8412.7957    3551.4755    3584.9006 
    5000    3668.4289    273.57294   -2141.2321    238.93241   -753.10347   -514.17106   -628.72755    2.5842744    4689.4002   -1348.5045    94.143782    109.43914    391.81815            0    595.40108    -6040.489   -33.444113      15.4361       15.394       15.438            0            0            0    1816.8989   -2885.6422   -1057.2775    2474.8339     525.5223   -9424.0523 
    6000    3668.4289    296.93902    4669.6682    259.33982   -749.57804   -490.23822    -240.4097    30.439438    4661.7202   -1352.4071     91.21317    113.02168    398.59425            0     602.8291   -6044.5668   -33.444113      15.4361       15.394       15.438            0            0            0   -1931.4638   -502.97796   -3572.0021    5719.3467     6269.431    2020.2269 
    7000    3668.4289    316.70593   -131.93436    276.60379   -712.82466   -436.22087    -443.2794    1.8141271    4709.0472   -1335.2348    96.573569    126.88765    398.94888            0    622.41009   -6046.0961   -33.444113      15.4361       15.394       15.438            0            0            0   -1205.1356    2432.9254   -866.94347    2256.9495   -2847.0906     194.3381 
    8000    3668.4289     296.3726   -459.23226    258.84512   -741.88661   -483.04149   -507.61054   -14.664284    4719.4696   -1343.3097    87.514758      120.145    393.76333            0    601.42309    -6048.115   -33.444113      15.4361       15.394       15.438            0            0            0    4585.6199   -6075.4972   -1072.3114    4234.2404    -6795.057    1183.1199 
    9000    3668.4289    273.11101   -2107.6384    238.52897   -714.88796     -476.359   -589.11822    8.0345789      4682.72   -1350.4323    99.636391    142.56887    393.33903            0     635.5443   -6041.1869   -33.444113      15.4361       15.394       15.438            0            0            0    2539.5407    78.676249   -2498.0191   -4576.9444   -3624.0468    1878.0761 
   10000    3668.4289     316.7913     3024.824    276.67834   -742.03746   -465.35912   -303.53022    10.911054    4690.7172   -1343.8397    83.950236    118.78274    399.06928            0    601.80226   -6045.4679   -33.444113      15.4361       15.394       15.438            0            0            0   -2164.2148   -880.95493    1467.5606   -174.18789    4127.3459    5121.3139 
   11000    3668.4289    306.58809   -2093.9331    267.76709   -723.02279    -455.2557   -567.28169   -25.648077    4733.2152   -1334.5214    91.455039    125.54464    394.49897            0    611.49865   -6042.0886   -33.444113      15.4361       15.394       15.438            0            0            0    256.05921    1178.4385   -3084.7208   -677.59262   -6195.9649    591.75816 
   12000    3668.4289    271.27097    5232.6687    236.92192   -758.86641   -521.94449   -241.99529    26.804928    4660.2212   -1355.5076    78.797015    117.84643    399.99776            0    596.64121   -6042.5338   -33.444113      15.4361       15.394       15.438            0            0            0   -1992.8556    1441.9523    2480.3102    8828.7966    4075.3536    2793.8558 
   13000    3668.4289    278.62845    2222.8492    243.34778   -719.97485   -476.62707   -357.70404    9.9617239    4699.2302   -1329.8407    82.206164    123.91873    403.74095            0    609.86585   -6039.0326   -33.444113      15.4361       15.394       15.438            0            0            0    95.033326    167.69758    1540.3155    3775.3684    2113.1964    779.98289 
   14000    3668.4289    297.53874    2745.6216    259.86359   -731.15759     -471.294    -324.4025   -10.134989    4714.3068   -1340.8693    90.778163    117.28763     401.6459            0    609.71169   -6045.0411   -33.444113      15.4361       15.394       15.438            0            0            0   -1940.0036    994.64397   -757.98015    3250.5801    5089.6554   -103.37065 
   15000    3668.4289    284.49965     2120.257    248.47555   -742.59959   -494.12404   -380.68971    5.4414668    4693.6573   -1343.0271    77.594607    128.60045    394.23243            0    600.42748   -6042.1258   -33.444113      15.4361       15.394       15.438            0            0            0   -1431.0706    514.85848    -1331.781    1755.7703   -852.36763    5457.3683 
   16000    3668.4289    308.80541   -3419.1703    269.70365   -715.53207   -445.82842   -628.75496   -12.239477    4707.2179   -1346.2563    95.644491    131.10296    403.97675            0     630.7242   -6041.2347   -33.444113      15.4361       15.394       15.438            0            0            0   -2291.8742   -1152.4377    -101.2068   -4761.1404    -7064.658    1568.2876 
   17000    3668.4289    290.30849    -2335.945    253.54886   -728.57125   -475.02239   -599.99609     5.088345    4709.1797   -1330.8511    78.074832    122.65462    401.55035            0     602.2798   -6045.1191   -33.444113      15.4361       15.394       15.438            0            0            0    402.37357    -1370.017   -2301.1738    -3100.385   -3704.0881   -203.36191 
   18000    3668.4289    298.83209   -6640.5663    260.99318   -736.28218     -475.289    -830.5611   -4.9348816    4688.5014    -1362.272    96.480475    127.98555    401.52375            0    625.98978   -6045.8385   -33.444113      15.4361       15.394       15.438            0            0            0    273.83167   -3451.6742    -1471.109   -7832.8799    -2350.013   -9738.8059 
   19000    3668.4289    303.80047    1339.4714    265.33245   -739.75952   -474.42708   -402.76499   -7.0002114    4699.2415   -1354.2137    88.929287    125.09647    400.42844            0    614.45419    -6046.455   -33.444113      15.4361       15.394       15.438            0            0            0    -1216.213   -1735.5012   -771.75289    6817.4105    1792.7864   -4591.7827 
   20000    3668.4289    287.92156     4262.303    251.46417   -743.64948   -492.18531   -264.15094   0.63592738    4694.3865   -1345.3841    73.836317    120.63085    407.26744            0    601.73461   -6040.4065   -33.444113      15.4361       15.394       15.438            0            0            0   -443.49417   -3174.8453    891.92961    2834.3476    7992.4035     1960.158 
   21000    3668.4289    316.78782    2257.6514    276.67531   -734.58114   -457.90583   -337.12087   -20.043337    4752.6002    -1313.301    73.695938    108.50281    396.52116            0    578.71991   -6045.8579   -33.444113      15.4361       15.394       15.438            0            0            0   -4259.6749    641.01525    655.13573     2886.899    -631.8759     4517.931 
   22000    3668.4289    282.94321    -2486.956    247.11619   -731.38065   -484.26446   -617.31729    5.7996689    4697.0553   -1341.0033    89.717248    120.44761    399.45781            0    609.62267   -6043.8583   -33.444113      15.4361       15.394       15.438            0            0            0   -1512.3467    3776.2562    300.17459    30.834409   -5741.1015    -1750.601 
   23000    3668.4289    315.55669    3843.1975    275.60007   -701.32605   -425.72598   -220.11387    33.501889    4672.9638   -1334.8417    107.62301    130.02434    395.86827            0    633.51561   -6041.3074   -33.444113      15.4361       15.394       15.438            0            0            0    3681.8665   -1881.6673    1629.4022    4975.5357    4963.4337    1590.6232 
   24000    3668.4289    319.39914    2556.3322    278.95597   -751.08034   -472.12437    -335.3599    15.696366    4671.8336   -1354.6599     95.36735     110.5374    397.67484            0    603.57959   -6042.1899   -33.444113      15.4361       15.394       15.438            0            0            0    1565.8799   -3429.0446   -3270.0937    3786.2469    203.33229    3679.4174 
   25000    3668.4289    288.85353   -899.89513    252.27813   -721.07042   -468.79229   -516.93693   -7.4953107    4739.2389   -1313.4011     88.83188    102.17763     401.3212            0    592.33071   -6045.1447   -33.444113      15.4361       15.394       15.438            0            0            0   -769.60631   -3821.3578   -1184.9686    -1982.651   -2085.2292    1368.1948 
   26000    3668.4289    289.86154   -7988.6035     253.1585   -721.74264   -468.58414   -895.97661   -3.4133326    4688.4894   -1359.1453    106.56322    126.88476    403.95466            0    637.40264   -6044.2214   -33.444113      15.4361       15.394       15.438            0            0            0    995.30097    725.86703     1448.629     -3795.28   -10025.095   -10145.435 
   27000    3668.4289    279.53223    2688.9499    244.13712   -730.86775   -486.73063   -342.87108    19.336791    4698.7921   -1324.8635    77.616436    113.52545     402.8539            0    593.99578   -6042.9924   -33.444113      15.4361       15.394       15.438            0            0            0     2123.726   -3018.9721   -3678.0673    3332.2046    2278.1746    2456.4706 
   28000    3668.4289    300.69731   -2747.2825    262.62222   -716.53453   -453.91232   -600.89268   -7.1904266    4726.3987   -1320.8853    91.351059    114.13691    398.86278            0    604.35075   -6040.0936   -33.444113      15.4361       15.394       15.438            0            0            0    1389.8481   -1529.5319   -6652.6771   -1674.4537   -1598.1924   -4969.2015 
   29000    3668.4289    293.01895   -1614.1498    255.91611   -727.62139   -471.70528   -558.06273   -19.889663    4714.8421    -1347.045    99.470668    125.53211     394.4208            0    619.42357   -6041.9974   -33.444113      15.4361       15.394       15.438            0            0            0    1674.5962   -1969.6336   -1261.8899    1512.3841   -2436.5385   -3918.2951 
   30000    3668.4289    292.96314   -4380.7801    255.86737   -732.21867    -476.3513   -710.72423     11.91359    4680.6382   -1346.2017    88.947329    121.30882    403.72685            0      613.983   -6038.7534   -33.444113      15.4361       15.394       15.438            0            0            0    4349.9963    35.584555   -3506.6982   -3413.7562   -9041.8706   -686.71342 
   31000    3668.4289    275.42262    1260.5735    240.54788   -699.45622   -458.90834   -391.46732    6.3546881    4713.4023   -1322.9127    85.819031    138.42083    399.21661            0    623.45648   -6042.6697   -33.444113      15.4361       15.394       15.438            0            0            0    986.95522    2305.4007    -3094.866    3615.2373   -4214.4739     4380.957 
   32000    3668.4289    313.27817   -1013.8519    273.61006   -757.96951   -484.35946   -538.60081    6.0756841    4676.4275   -1362.4459    95.035464    109.42784    400.01309            0     604.4764   -6044.9491   -33.444113      15.4361       15.394       15.438            0            0            0    176.18644   -1070.6876    4694.4552    1129.7002      306.199   -4477.4549 
   33000    3668.4289    281.33374   -3326.8481    245.71051   -719.64823   -473.93771   -651.92499   -5.4391648    4709.9821    -1340.652    89.006469    133.15794    398.83938            0    621.00379    -6045.195   -33.444113      15.4361       15.394       15.438            0            0            0    1762.3638    3249.4805    223.16069   -2426.7521   -4821.2769   -2732.5153 
   34000    3668.4289      319.884    -3604.508    279.37944    -719.1163   -439.73687   -632.57903   -4.7821923    4702.1052   -1344.6296    98.595139    124.47626    402.44186            0    625.51326   -6041.9526   -33.444113      15.4361       15.394       15.438            0            0            0    5850.5157   -1803.4274    377.38503   -1932.2616   -6031.4193   -2849.8432 
   35000    3668.4289    287.25827    6599.5713    250.88487   -733.26192   -482.37705   -129.29819    8.5755182    4704.2129   -1330.9557    75.357971    123.47808     398.8577            0    597.69375   -6043.7441   -33.444113      15.4361       15.394       15.438            0            0            0    507.89484    2285.9018   -2759.0141    2243.2892    12023.324    5532.1009 
   36000    3668.4289    284.36222   -605.34138    248.35552   -727.68703   -479.33152   -511.71744    27.607553    4662.4795   -1353.5183    97.609292    129.85011    398.37188            0    625.83128   -6043.6054   -33.444113      15.4361       15.394       15.438            0            0            0    1889.0794   -6462.7701    697.79301    1523.6088   -2862.7217   -476.91122 
   37000    3668.4289    275.76744   -3422.9884    240.84904    -737.4094   -496.56036   -679.69117    6.2792166    4686.8194   -1349.9897    89.405746    125.26967    397.90484            0    612.58026   -6043.0883   -33.444113      15.4361       15.394       15.438            0            0            0    751.10148   -3344.3538    855.74377   -4582.8134   -6619.1947    933.04286 
   38000    3668.4289    278.64384    2975.4016    243.36122   -749.97841   -506.61719    -347.4324     26.40277    4673.5238   -1347.1172     87.02053    112.80287    397.31539            0    597.13879   -6047.0437   -33.444113      15.4361       15.394       15.438            0            0            0    -765.8202    3410.4427   -3403.8789     -2267.59    6190.3173    5003.4774 
   39000    3668.4289    299.93487    670.99745    261.95632   -737.93763   -475.98131   -440.08277     14.09089    4672.3792     -1359.09    87.347216    132.33427    401.47087            0    621.15235   -6045.5601   -33.444113      15.4361       15.394       15.438            0            0            0   -1792.6329    915.01794   -3367.2537    3840.9778   -3783.0669    1955.0815 
   40000    3668.4289    297.32776    1576.2788    259.67933   -770.60186   -510.92253   -426.59119    1.2425929    4683.2791   -1356.1096    74.801653    105.36475    405.34135            0    585.50776   -6040.6313   -33.444113      15.4361       15.394       15.438            0            0            0   -1508.7154    -763.1325    1934.8648     5399.922    1093.1991   -1764.2847 
   41000    3668.4289    286.33681    131.68863    250.08008   -742.95795   -492.87787   -485.83249    11.445483     4686.005   -1345.5045    88.532637    111.16645    402.84745            0    602.54654   -6042.9549   -33.444113      15.4361       15.394       15.438            0            0            0    1252.1603    1302.4575    2060.2704    3309.4805   -235.82715   -2678.5875 
   42000    3668.4289    291.09716    1642.5543    254.23766   -740.49886    -486.2612   -398.38409   -4.7278633    4705.6992   -1340.1334    82.411093    114.54269    402.68079            0    599.63458   -6041.1048   -33.444113      15.4361       15.394       15.438            0            0            0     1296.926   -1630.6443    2845.6942    2890.7753   -725.75448     2762.642 
   43000    3668.4289    305.23923    514.58879    266.58903    -739.9546   -473.36557   -445.83493     3.238973    4695.9409   -1348.2294    95.522994    113.61369    399.13814            0    608.27482   -6047.4093   -33.444113      15.4361       15.394       15.438            0            0            0    152.02698   -3856.1234   -2656.5711    6308.1439   -3168.8285    -1595.549 
   44000    3668.4289    281.50007   -1525.8154    245.85578   -738.76804   -492.91226    -574.5438   -3.5862565    4702.3332   -1341.5512    89.872653    114.47748    398.43306            0     602.7832   -6040.2982   -33.444113      15.4361       15.394       15.438            0            0            0   -642.71462   -2503.7678    2669.0678   -4560.6363   -284.34424    267.53449 
   45000    3668.4289    317.60705   -2687.9091    277.39081   -749.15831   -471.76751   -615.57138   -27.504055    4714.7772   -1356.9439    85.588017    121.33199    400.86556            0    607.78558   -6044.2171   -33.444113      15.4361       15.394       15.438            0            0            0   -1566.4602    925.21772   -2223.9775    1102.5737   -854.98032   -8311.3207 
   46000    3668.4289    292.38035     3846.985    255.35837   -722.30326   -466.94489   -261.13015    36.463001    4659.8251   -1349.1223    92.737551    135.97621    398.10531            0    626.81908   -6045.4104   -33.444113      15.4361       15.394       15.438            0            0            0    3283.3234    5011.3808    2380.4968   -1771.0091     9487.772    3824.1919 
   47000    3668.4289    295.51164   -2433.5227    258.09317   -746.56336   -488.47019   -618.66431    24.358668    4660.1473   -1357.7338    89.767128    120.01675    401.38654            0    611.17042   -6042.2397   -33.444113      15.4361       15.394       15.438            0            0            0   -6192.1193   -4276.8448    3363.9978   -5686.9882   -4948.3424    3334.7624 
   48000    3668.4289    274.23443   -543.25657    239.51014   -731.71024    -492.2001   -521.26448    17.208356     4702.863   -1321.5198    90.572558    102.17426    397.06274            0    589.80956   -6041.5912   -33.444113      15.4361       15.394       15.438            0            0            0   -605.27955    255.32401    2866.1959   -2600.0328   -115.65461    1085.9177 
   49000    3668.4289    288.13921    1974.4979    251.65426   -721.81665   -470.16239   -364.52622    10.984075    4714.4365   -1319.8613    87.730395     108.2461    402.06813            0    598.04463   -6045.2819   -33.444113      15.4361       15.394       15.438            0            0            0    -3478.891    34.934809    4526.5058    634.24832    2003.5122    3285.7331 
   50000    3668.4289    296.56728    3332.5436    259.01514   -719.45315   -460.43801   -282.14602    10.926109    4684.1601   -1349.1234    88.595382    133.21299    407.86187            0    629.67024   -6044.2096   -33.444113      15.4361       15.394       15.438            0            0            0   -559.29155    1171.4927   -373.13793    1513.5685    5383.9535    3100.1088 
   51000    3668.4289    305.82408    5311.5831    267.09982   -727.68586   -460.58603   -176.41489    10.622551    4692.0588   -1344.2457    89.020623     124.5223    403.01692            0    616.55985    -6046.927   -33.444113      15.4361       15.394       15.438            0            0            0   -498.22781    481.11956     1055.253    9949.4261    -361.5123    6346.8354 
   52000    3668.4289    303.24789    -2053.886    264.84984   -705.33544    -440.4856   -550.36906   -3.7707556    4729.0811   -1318.6242    94.163656    120.35401    398.77113            0     613.2888   -6043.9346   -33.444113      15.4361       15.394       15.438            0            0            0   -1470.3287    1604.3034    940.53704   -2922.2053    2273.3188   -5512.7716 
   53000    3668.4289     323.5179     4930.481    282.55321   -731.42018   -448.86697   -185.08489   -11.468988     4717.748   -1335.8107    84.676805    117.46307    402.25063            0    604.39051   -6042.0897   -33.444113      15.4361       15.394       15.438            0            0            0    2781.2958    930.29121    795.30351    3559.2986    6906.5546      4325.59 
   54000    3668.4289    295.58532   -887.28173    258.15752   -714.61317   -456.45565   -503.92547  -0.41781772    4713.8277   -1329.1941     92.05571    123.49097     399.0342            0    614.58088    -6042.604   -33.444113      15.4361       15.394       15.438            0            0            0    658.90665   -2379.5974    4438.8153   -2320.3825   -5242.0534    4900.5907 
   55000    3668.4289    315.88624   -4683.1166    275.88788   -735.94143   -460.05355   -710.60156   -20.665872    4730.7862   -1329.4669    87.963334    106.62154    398.94064            0    593.52551   -6039.5872   -33.444113      15.4361       15.394       15.438            0            0            0    1250.2412   -833.97349    124.83407   -4602.8696   -2532.2284   -6914.2518 
   56000    3668.4289    308.20529    -734.8716    269.17952   -742.02909   -472.84956   -512.16539    12.770518    4695.6904   -1332.7473     87.03794    103.29384    400.38644            0    590.71823   -6041.2082   -33.444113      15.4361       15.394       15.438            0            0            0    -3970.406    981.21106   -991.69441   -152.12971   -3669.4502    1616.9651 
   57000    3668.4289    303.38008    6278.4962    264.96528   -724.47449    -459.5092   -123.60795    33.904917    4677.9651    -1333.303    101.06531    108.94789    398.81534            0    608.82854   -6045.1731   -33.444113      15.4361       15.394       15.438            0            0            0    2167.2819   -951.72466    6657.1212    11415.817    4169.3798    3250.2917 
   58000    3668.4289    287.28139    3158.3121    250.90506   -753.67501   -502.76995   -333.79939    14.653342    4663.2182    -1366.348    87.664604    122.79634    402.21209            0    612.67304   -6044.2196   -33.444113      15.4361       15.394       15.438            0            0            0   -2902.4815   -3108.5161    299.00884    7199.7657    4989.5814   -2714.4107 
   59000    3668.4289    279.68392   -5855.2688     244.2696   -708.61132   -464.34173    -777.6002    2.3986438    4720.6776   -1320.5722    108.43406    96.783044    406.74376            0    611.96087   -6043.6484   -33.444113      15.4361       15.394       15.438            0            0            0    -4743.299   -205.44353    3316.8308   -7112.3458   -7735.4338   -2718.0267 
   60000    3668.4289    312.98414    2987.5297    273.35325   -742.87782   -469.52456   -309.69091    6.1651786    4701.4428   -1338.8604    78.201296    123.33617    394.44512            0    595.98259   -6046.4684   -33.444113      15.4361       15.394       15.438            0            0            0   -1019.7535    1213.6689    831.91748    1072.3037    2092.3639    5797.9216 
   61000    3668.4289     290.4643    6035.8108    253.68494   -744.15733    -490.4724   -167.55487     15.28876    4680.2828   -1349.0649     91.50536     122.8242    390.57798            0    604.90754   -6044.6364   -33.444113      15.4361       15.394       15.438            0            0            0    2488.7567   -3319.0731   -4694.5525    3417.7434    8756.0566    5933.6325 
   62000    3668.4289    281.55043   -1529.4746    245.89977   -727.05523   -481.15547   -562.98278   -5.7541071    4714.4727   -1336.3189    79.174032    130.28787    399.80173            0    609.26363   -6045.0374   -33.444113      15.4361       15.394       15.438            0            0            0   -1365.3807   -1113.0738   -586.14276   -4636.9052    3195.1931   -3146.7118 
   63000    3668.4289    294.72408   -3317.7518    257.40533    -723.8909   -466.48557    -643.9862    9.9642406    4701.1888   -1331.9518    88.620905    121.39943    398.04059            0    608.06093   -6043.1049   -33.444113      15.4361       15.394       15.438            0            0            0   -2571.9217   -3284.5501   -0.3787551    -9490.189   -1987.6398    1524.5735 
   64000    3668.4289    319.41642   -1966.6394    278.97107   -718.18882   -439.21775   -544.43349    8.0789308    4690.8287   -1342.4877    101.41334    123.18124    399.70434            0    624.29892   -6041.3953   -33.444113      15.4361       15.394       15.438            0            0            0   -3778.3119   -898.85757    2177.5589   -4269.7731    3223.9931    -4854.138 
   65000    3668.4289    276.76789    1130.4561    241.72281   -746.38868   -504.66588   -444.18617    15.049831    4673.4709   -1351.4049    84.234635    128.51185    392.26978            0    605.01626   -6039.9257   -33.444113      15.4361       15.394       15.438            0            0            0   -1521.0865   -2339.3844   -1707.9645    5361.7095     915.8525   -2886.1938 
   66000    3668.4289    294.60145   -568.96141    257.29823   -735.77219   -478.47396   -508.91355   -9.0266711    4713.7793   -1338.2751    83.585677    116.18594    402.73129            0    602.50291   -6043.0277   -33.444113      15.4361       15.394       15.438            0            0            0    1154.6851   -619.37754    1058.4961    2384.4974   -723.26773   -3368.1139 
   67000    3668.4289    293.41605    31.018934    256.26293   -746.45127   -490.18834   -488.52882   0.98315363    4685.9275   -1359.1557    88.186279    124.07585     400.4423            0    612.70443   -6046.0663   -33.444113      15.4361       15.394       15.438            0            0            0   -2084.4995   -6126.3311    1046.3064    777.12644   -4364.0166    3679.9469 
   68000    3668.4289    310.03611     2999.615    270.77852   -741.63412    -470.8556   -310.37538     20.69647    4685.8257   -1337.4834     78.52795    123.79644    393.52489            0    595.84928   -6044.0056   -33.444113      15.4361       15.394       15.438            0            0            0   -215.52518   -1692.5559   -4358.5319    2932.9273    1587.4743    4478.4435 
   69000    3668.4289     278.5692   -2749.2688    243.29603   -718.86121   -475.56518   -622.65181   -11.009662    4725.0948   -1329.1711    86.658202    128.12279    395.52892            0    610.30992   -6043.2563   -33.444113      15.4361       15.394       15.438            0            0            0   -56.736145    5111.3606     1131.661   -2500.2205   -136.62543   -5610.9603 
   70000    3668.4289    320.08741   -229.27123     279.5571   -727.24282   -447.68573    -459.9518    4.5857991    4693.7562   -1345.5108    90.070704    130.36136    397.83596            0    618.26802   -6043.8528   -33.444113      15.4361       15.394       15.438            0            0            0   -2002.1986   -4279.2157    1388.9862    4006.0307   -1753.8115   -2940.0329 
   71000    3668.4289    293.02535    4335.4324     255.9217   -739.97651   -484.05481     -252.108    -5.910875    4704.4556   -1348.7888    100.08719    111.02471    397.70036            0    608.81225   -6047.3335   -33.444113      15.4361       15.394       15.438            0            0            0   -4421.1097    544.48944    2490.3647    1496.5968    3648.2699    7861.4305 
   72000    3668.4289     284.0097   -1372.1954    248.04764   -740.61641   -492.56878    -565.9816    22.775817    4667.6853   -1355.5984     88.01705    123.30999    403.65491            0    614.98195   -6046.0595   -33.444113      15.4361       15.394       15.438            0            0            0   -3125.9181    1744.1152    2238.9849    245.47197    -2821.756    -1540.302 
   73000    3668.4289    277.57382    1647.9894    242.42669   -685.91738    -443.4907   -355.32281   -4.5035091    4733.1384   -1313.0815    92.480355    136.82936    397.85445            0    627.16416   -6041.7165   -33.444113      15.4361       15.394       15.438            0            0            0    2737.2519   -4362.9836   -2568.8205   -2510.2014    5016.3623    2437.8073 
   74000    3668.4289    292.13431   -382.57584    255.14349   -715.79438   -460.65089    -481.1188    22.970697      4669.28   -1350.0743    92.015128    140.26705    401.99773            0    634.27991    -6042.325   -33.444113      15.4361       15.394       15.438            0            0            0   -393.41116    3290.6001    559.35826   -5117.4673    2920.5251    1049.2147 
   75000    3668.4289    308.67454    401.20997    269.58935   -710.44251   -440.85315   -419.38831    8.9069129    4715.8577   -1317.8118    85.451268    114.20408    407.71391            0    607.36925   -6042.5764   -33.444113      15.4361       15.394       15.438            0            0            0    1332.3606   -2116.2327   -1646.9574    2444.8741    790.29671   -2031.5409 
   76000    3668.4289    302.05199   -2516.5617    263.80536   -743.40889   -479.60353   -614.24026   -4.4376905    4706.0644   -1345.0338    96.047159    104.22254    401.35518            0    601.62489   -6046.6604   -33.444113      15.4361       15.394       15.438            0            0            0   -774.67326    3709.9732    2101.0871   -1022.6822     3634.255   -10161.258 
   77000    3668.4289     315.6346   -3968.8698    275.66811   -707.45077   -431.78267   -644.11828    -24.41397    4734.0997    -1334.453    108.19835    112.95214    405.85173            0    627.00222   -6044.1388   -33.444113      15.4361       15.394       15.438            0            0            0    7370.5209    116.86834   -3697.1846   -519.86022   -5658.0507   -5728.6984 
   78000    3668.4289    305.03727    1277.5264    266.41264   -723.70065   -457.28801      -388.94      11.5751    4677.5671   -1354.8575    102.20776    130.97366    397.97545            0    631.15687   -6043.9997   -33.444113      15.4361       15.394       15.438            0            0            0    2095.5458   -1238.0433    201.22885    2454.7174    710.10683     667.7551 
   79000    3668.4289    302.56781   -1813.3504    264.25587   -742.36401   -478.10813   -575.12287    -2.973722    4689.2653   -1355.2574     89.36897    123.14559    400.37888            0    612.89343    -6041.549   -33.444113      15.4361       15.394       15.438            0            0            0   -2595.1266   -1612.1331   -1146.5081   -195.04797   -1601.3915   -3643.6117 
   80000    3668.4289    310.14778    3559.7404    270.87604   -742.82942   -471.95338    -281.5063     8.651273    4692.5158   -1342.5735    86.269792    113.24932    400.22501            0    599.74412   -6043.7406   -33.444113      15.4361       15.394       15.438            0            0            0    24.244092   -1298.1136   -4640.4603    7513.0892   -3115.6926    6281.8245 
   81000    3668.4289     267.8095    1468.2687    233.89875   -753.51971   -519.62096   -441.06818    4.0641159    4693.5848   -1346.3847     83.02023    108.86671    400.97804            0    592.86498   -6044.0336   -33.444113      15.4361       15.394       15.438            0            0            0    752.93857   -1516.2305   -2158.0893   -2706.8493    741.60631    6370.0492 
   82000    3668.4289    345.46719   -1823.7246    301.72322   -767.53157   -465.80836   -563.37812   -4.6060008    4682.1986   -1363.1423    79.397099     115.6747    400.53892            0    595.61072   -6040.7349   -33.444113      15.4361       15.394       15.438            0            0            0    1014.1599   -857.36653    -1500.595   -3612.1074   -1014.0978   -844.96864 
   83000    3668.4289    266.54146    2422.1815    232.79127   -764.97896   -532.18769   -402.60032    8.1720092     4670.213   -1365.7527    86.346433    122.17747    392.24986            0    600.77377   -6044.1377   -33.444113      15.4361       15.394       15.438            0            0            0    595.94865   -3031.2257    971.39975    933.41596    4073.0182    2260.1103 
   84000    3668.4289    316.52202    8302.0353    276.44316   -732.33718   -455.89402   -11.732866    13.063724    4669.8395   -1357.8548    103.61562    117.29444    404.60757            0    625.51763    -6040.758   -33.444113      15.4361       15.394       15.438            0            0            0   -325.74571    3364.9121    5060.4243    10423.814    7364.0172    7118.2747 
   85000    3668.4289    270.54898   -3204.1243    236.29135   -728.80533   -492.51398    -663.9355   -4.9060994    4725.3998   -1321.0305    86.897367    104.00987     401.3179            0    592.22514   -6041.5242   -33.444113      15.4361       15.394       15.438            0            0            0   -534.38244   -1701.2958    3046.8234    586.52938   -5606.6815   -4592.2207 
   86000    3668.4289    303.76525   -806.17688    265.30169   -731.55918   -466.25749   -509.38818    10.748795    4673.3778   -1359.4177    102.41635    128.92803    396.51416            0    627.85855   -6043.5443   -33.444113      15.4361       15.394       15.438            0            0            0    594.10759   -599.89681    1873.9583    -3323.548   -861.45672    1766.4741 
   87000    3668.4289     312.1234   -395.23772    272.60151   -738.80333   -466.20182   -487.34714   -29.768495    4730.9778   -1343.5224    82.113006    121.01703    401.58899            0    604.71903   -6044.7317   -33.444113      15.4361       15.394       15.438            0            0            0   -2993.8856   -2482.0481    1525.1267    3544.5464   -6536.6901    1806.4306 
   88000    3668.4289    302.14081    1468.6247    263.88294   -749.92477   -486.04183   -407.47001   -8.3157697    4700.5631   -1351.2604     93.15931    107.34457    400.83176            0    601.33564   -6043.5077   -33.444113      15.4361       15.394       15.438            0            0            0   -209.81804    709.68532   -1759.6462    5605.3905    326.15237   -1525.6689 
   89000    3668.4289    293.13904   -8279.2459    256.02099   -738.50693   -482.48593   -925.42784   -31.847837    4720.5775    -1354.735    90.742106    122.98311    402.50284            0    616.22805   -6043.4646   -33.444113      15.4361       15.394       15.438            0            0            0    1215.7997   -327.84144   -300.30527   -8042.9324   -7908.6112    -8886.194 
   90000    3668.4289     305.0613   -1486.6145    266.43363   -722.69984   -456.26621   -535.80048    10.225419    4692.6145    -1339.414    106.45814    109.59538    400.66066            0    616.71417    -6042.254   -33.444113      15.4361       15.394       15.438            0            0            0    651.80695    2994.6375   -661.27194   -5278.6879   -4137.4267    4956.2712 
   91000    3668.4289    302.10557    2031.4093    263.85216   -731.96447   -468.11231   -359.43136   -5.9295595    4712.1241   -1334.1459    83.861936    118.27082    400.04869            0    602.18145   -6040.3405   -33.444113      15.4361       15.394       15.438            0            0            0    777.67202   -2974.2292   -28.623514    783.79785   -993.75708    6304.1871 
   92000    3668.4289    283.34633   -3124.5295    247.46827   -753.96425   -506.49599   -673.65916    5.1843758    4685.4121   -1353.6635     89.50359    104.51204     405.6836            0    599.69923     -6044.26   -33.444113      15.4361       15.394       15.438            0            0            0    829.39243    2149.6721   -1542.3549   -2874.8349   -8560.0634      2061.31 
   93000    3668.4289    316.91241   -3720.9502    276.78412   -751.80257   -475.01845    -674.0903   -21.131133    4710.6022   -1353.0992    84.016783    117.79845    399.48136            0    601.29659   -6042.5702   -33.444113      15.4361       15.394       15.438            0            0            0   -656.62483   -3153.9222   -4022.3816   -8703.7122   -2757.7284    298.59003 
   94000    3668.4289    280.10766    1544.4225    244.63969   -745.76194   -501.12225   -418.49523    0.8044429    4691.8306   -1348.2052    86.807009     116.5116    399.12465            0    602.44326   -6040.8402   -33.444113      15.4361       15.394       15.438            0            0            0    1147.3585   -1443.3424    448.46677    1559.1648    4645.9963   -1571.8937 
   95000    3668.4289    297.56445    873.86073    259.88605   -738.81806   -478.93201   -432.18022   -8.2031764    4711.5012   -1340.4502    96.673906     108.0794    396.87886            0    601.63216   -6043.7482   -33.444113      15.4361       15.394       15.438            0            0            0     4126.823    2066.5045    3602.7121    3080.5008   -7102.8054    6643.8869 
   96000    3668.4289    285.84902   -6483.3817    249.65406   -741.23085   -491.57678   -838.43947   -1.4093575    4684.8458    -1361.695    107.11692    107.40267     405.9446            0    620.46419   -6045.1315   -33.444113      15.4361       15.394       15.438            0            0            0    4621.3771   -1629.4462    4348.3651   -3482.3839    -8480.723    -7487.038 
   97000    3668.4289    269.47091    7083.7391    235.34979   -696.11674   -460.76695   -81.784984    14.204554    4716.5451   -1312.3189    96.861591    116.42975     402.9108            0    616.20214   -6043.0685   -33.444113      15.4361       15.394       15.438            0            0            0   -1213.8283    689.67317   -3171.5855    2301.8776    9877.1448    9072.1949 
   98000    3668.4289    308.74927    2960.7054    269.65462   -732.03854   -462.38393   -303.98538    6.0349854    4699.0819   -1341.8681    95.321902    109.27407    405.23358            0    609.82955    -6046.985   -33.444113      15.4361       15.394       15.438            0            0            0   -1161.9022    1208.5034   -2434.3358    1622.5721    6072.3153    1187.2288 
   99000    3668.4289    303.42437   -1571.8803    265.00397   -708.63258   -443.62861   -527.72463   -6.5454501    4726.9861   -1325.6807     110.0402    101.06752    405.94044            0    617.04815   -6046.1214   -33.444113      15.4361       15.394       15.438            0            0            0   -1385.1617    3529.0229    398.60584    -4132.972    2032.8815   -2615.5504 
  100000    3668.4289    304.29449    1913.2008    265.76391   -717.59555   -451.83164   -349.47488    -12.45307     4727.264   -1328.9756    97.726718    108.75344    404.89985            0    611.38001   -6043.7865   -33.444113      15.4361       15.394       15.438            0            0            0    -1534.611    6884.9948    2213.7457    6706.1711   -3038.8553    2072.2866 
  101000    3668.4289    319.24081    -4231.019    278.81769   -721.02756   -442.20987   -668.57054    20.751439    4692.1424   -1329.9982    101.33566      104.685    402.94999            0    608.97064    -6042.892   -33.444113      15.4361       15.394       15.438            0            0            0    2207.6453   -1959.9495   -678.99455    -5390.037   -3876.4864   -3426.5336 
  102000    3668.4289    278.15141    3354.0858    242.93114   -720.79261   -477.86146   -298.41696   -8.6031818    4720.5667   -1327.6751    99.218334    112.16179    395.50235            0    606.88247   -6039.6386   -33.444113      15.4361       15.394       15.438            0            0            0   -2984.0166   -3221.2901    2039.8157    3350.6578    1100.3476    5611.2519 
  103000    3668.4289    315.40258   -3062.3313    275.46547   -719.87121   -444.40574    -608.2413    24.450735    4702.8276   -1317.6559    105.27333    90.744132    401.76722            0    597.78469   -6044.9343   -33.444113      15.4361       15.394       15.438            0            0            0    -3640.954    1701.5679    1025.0629   -5571.9135   -5190.9431    1575.8627 
  104000    3668.4289     298.7255    1321.1099    260.90009   -740.09173   -479.19164    -408.5119    -3.309432    4698.8259    -1345.369    88.188526    117.14134    399.94737            0    605.27724   -6040.8854   -33.444113      15.4361       15.394       15.438            0            0            0   -3013.7075    1651.1162   -4940.6136   -4225.1826    3642.8711    4545.6413 
  105000    3668.4289     306.5469   -5019.2287    267.73112   -709.23589   -441.50477   -710.03487   -28.053742    4751.1886   -1319.9156    100.05861    111.87046    398.75068            0    610.67975   -6043.0505   -33.444113      15.4361       15.394       15.438            0            0            0    857.76157    1306.6556    4710.2334   -3808.0651   -7335.6522   -3913.9689 
  106000    3668.4289    297.81713    4848.6443    260.10674   -740.42301   -480.31628   -220.91249    42.298986    4663.5501   -1336.4651    92.469014    112.98842    390.58467            0     596.0421   -6042.3142   -33.444113      15.4361       15.394       15.438            0            0            0   -4890.2222   -1455.5338    4035.8094     5584.886    4804.7923    4156.2546 
  107000    3668.4289    302.75139   -4934.4723     264.4162   -735.38205   -470.96584   -734.96145    4.8172495    4678.6164   -1352.2769    103.68458    118.24785    394.96239            0    616.89482   -6035.7105   -33.444113      15.4361       15.394       15.438            0            0            0    3768.1482    1664.5931    2488.4526   -3745.1276   -6552.5615   -4505.7279 
  108000    3668.4289     266.1782   -42.555954    232.47401   -740.68676   -508.21275   -510.48951   -1.7523371    4687.1781    -1353.073    85.572463    127.74979    399.06394            0     612.3862   -6038.4987   -33.444113      15.4361       15.394       15.438            0            0            0    6573.1482    8316.8812   -182.91064    1204.7773   -3989.7723    2657.3272 
  109000    3668.4289    310.50517     1604.117    271.18818   -729.36156   -458.17338   -372.35268    16.737089    4683.0787   -1340.9261    96.284644    119.94387    395.33603            0    611.56455   -6040.7419   -33.444113      15.4361       15.394       15.438            0            0            0    -616.5945    1657.3911    7535.7634    1035.7105     3594.052    182.58839 
  110000    3668.4289    298.11412   -50.054408    260.36611   -737.48917   -477.12305   -479.80098    8.4826643    4661.0061   -1371.8902    103.19877    121.44157    409.76068            0    634.40103    -6041.379   -33.444113      15.4361       15.394       15.438            0            0            0    265.49596    1189.5819    1585.6194   -335.91064   -1909.6718    2095.4192 
  111000    3668.4289    303.85894   -546.89769    265.38351   -727.80545   -462.42193   -491.68111    2.4266469     4704.556   -1334.9464    82.930374    121.85124    402.35929            0    607.14091    -6041.929   -33.444113      15.4361       15.394       15.438            0            0            0    1550.7144    438.71364    -467.2287    1211.4069   -2250.1313   -601.96872 
  112000    3668.4289    286.75038   -1657.5207    250.44129   -739.27325   -488.83197   -577.50978    21.192612    4667.4881   -1350.7009    92.906915    121.95357    396.56716            0    611.42765   -6039.3816   -33.444113      15.4361       15.394       15.438            0            0            0   -2063.2012   -3750.2092   -531.90135   -502.31211   -3401.5528   -1068.6973 
  113000    3668.4289    326.93057    1682.8281    285.53375   -728.74355    -443.2098   -353.17803    2.8678042    4695.9555   -1344.4547    98.892641    113.08527    403.73329            0     615.7112    -6043.278   -33.444113      15.4361       15.394       15.438            0            0            0    202.36322   -1059.5389    274.63415   -5311.7822    4289.7435    6070.5231 
  114000    3668.4289    312.69044    2186.9804    273.09675   -729.84063   -456.74389   -339.73984    8.1847981    4691.7191    -1343.496    87.729485    124.54536    401.38056            0     613.6554   -6043.3999   -33.444113      15.4361       15.394       15.438            0            0            0    1528.9206     1175.749    435.56802    4455.8768    977.15294    1127.9114 
  115000    3668.4289    301.40649    4653.0043     263.2416   -724.63188   -461.39028   -212.45329    20.938689    4668.5749    -1352.423    94.408187    129.91146    403.47151            0    627.79116   -6041.9367   -33.444113      15.4361       15.394       15.438            0            0            0   -564.13705     5022.536    149.57014    4009.0019    5435.4713    4514.5397 
  116000    3668.4289     273.7831   -2182.4642    239.11595   -718.88689   -479.77094   -596.53336     7.896704      4695.96   -1340.6673    106.57074      111.431     403.7787            0    621.78045    -6044.524   -33.444113      15.4361       15.394       15.438            0            0            0    1059.1573    -292.6844   -1445.4226   -5824.0037    2317.4484   -3040.8374 
  117000    3668.4289    310.52561    1311.6593    271.20603   -714.08186   -442.87583    -372.7017    9.4680729    4703.2172    -1329.248    95.820021    120.11692    399.22917            0    615.16612   -6041.9332   -33.444113      15.4361       15.394       15.438            0            0            0   -813.80072    4110.1964    1083.2251    774.79865   -1339.1799    4499.3593 
  118000    3668.4289    304.74323    3219.9301    266.15584   -712.86123   -446.70539   -274.43825   -1.0001158    4729.3206   -1314.4517    87.150792    111.51794    402.92174            0    601.59047   -6042.7721   -33.444113      15.4361       15.394       15.438            0            0            0    295.04835    2466.8803   -525.40225    4143.0212    4091.0596    1425.7095 
  119000    3668.4289    293.60921   -881.83363    256.43163   -735.88369   -479.45206    -526.6304     20.22147    4670.9254   -1350.3359    100.03479    118.38636    396.03106            0    614.45221   -6041.4827   -33.444113      15.4361       15.394       15.438            0            0            0    4504.2689    5786.8104   -2550.8108   -1684.8992  -0.27796498   -960.32368 
  120000    3668.4289    310.13461    714.05428    270.86454   -737.64904    -466.7845    -428.5824   -21.981431    4723.6458   -1341.1548    82.122132    124.86345    396.52014            0    603.50572   -6042.8191   -33.444113      15.4361       15.394       15.438            0            0            0    691.96586     1222.591    44.467289    966.94499    1476.9924   -301.77451 
  121000    3668.4289    301.12841   -4081.3663    262.99873   -697.23386   -434.23514   -652.58935     -26.7244    4752.1593    -1315.929    92.107902    129.40818    397.17904            0    618.69512   -6041.3639   -33.444113      15.4361       15.394       15.438            0            0            0   -6598.3846    4402.8136    2935.6953   -806.41373   -4706.4329   -6731.2523 
  122000    3668.4289     319.3833     4028.907    278.94214   -704.49225   -425.55012    -210.0025   -17.256779    4738.9256   -1317.5394    96.567062    117.14158     399.3385            0    613.04714   -6039.2082   -33.444113      15.4361       15.394       15.438            0            0            0    3756.5513    1087.4897    636.50973    1201.5119    7788.8448    3096.3642 
  123000    3668.4289    287.12115   -2659.1077    250.76511   -737.57589   -486.81079   -629.07378   -11.159121    4698.5927   -1352.8721    84.230931    126.87318    404.19207            0    615.29618   -6040.3056   -33.444113      15.4361       15.394       15.438            0            0            0    2399.5458    4366.9904    2012.9165    1361.1506   -5074.4391   -4264.0347 
  124000    3668.4289    322.11461    638.09598     281.3276   -723.78444   -442.45684   -408.31853    5.8810749    4689.1237   -1345.9584    92.164605    128.45936    401.55003            0    622.17399   -6040.9632   -33.444113      15.4361       15.394       15.438            0            0            0   -2621.7387    1302.9564    -83.98036    5282.5205   -1324.0862   -2044.1463 
  125000    3668.4289    281.96267    4831.6662    246.25981   -719.84603   -473.58622   -215.09076    27.124344     4685.742   -1329.4289     86.97875     130.0453    392.55885            0     609.5829   -6042.2953   -33.444113      15.4361       15.394       15.438            0            0            0    549.83774    1559.4033    1819.0845    8738.4261    1857.4632    3899.1094 
  126000    3668.4289    313.14098    1473.3027    273.49024   -743.17025   -469.68002   -390.85792   -1.2768836    4702.5768   -1342.9186    91.282519    105.29905    403.16674            0    599.74831   -6044.2185   -33.444113      15.4361       15.394       15.438            0            0            0   -1653.6529    3044.3646   -3035.6895    581.57939    150.40751    3687.9212 
  127000    3668.4289    297.69466    605.60646    259.99977   -724.31835   -464.31858   -431.91847    -15.04607    4734.5197   -1324.5989     94.96071    104.48143    400.83842            0    600.28056   -6044.0726   -33.444113      15.4361       15.394       15.438            0            0            0   -1951.5897   -598.31207    3551.3508   -5222.6082    1962.6292    5076.7984 
  128000    3668.4289    311.76749   -918.19171    272.29066    -750.6236   -478.33295   -527.45645    16.028468    4664.4721   -1357.0173    93.158457    112.40292     400.8323            0    606.39368   -6037.5178   -33.444113      15.4361       15.394       15.438            0            0            0    1342.7459    4200.9774   -833.92929   -1313.0678     730.8385   -2172.3459 
  129000    3668.4289     306.6791   -1419.5388    267.84658   -700.77344   -432.92686   -508.87257   -1.5766905    4705.4444   -1335.4846    94.150209    139.94748    400.61342            0    634.71112   -6039.3522   -33.444113      15.4361       15.394       15.438            0            0            0   -4503.8114    944.22419   -2969.7487    1559.7551   -1435.9628   -4382.4086 
  130000    3668.4289    302.94226   -1972.7621     264.5829     -724.504   -459.92109   -565.46441    22.113442    4687.0781   -1333.5437     103.4386    113.16698    392.43411            0     609.0397   -6042.7353   -33.444113      15.4361       15.394       15.438            0            0            0    1723.1218   -4.8453696    2454.4707   -1242.4686   -5492.8995    817.08165 
  131000    3668.4289    271.03938    209.95899    236.71965    -712.6504   -475.93075   -464.69789   -7.8931935    4751.9853   -1300.0115    85.361663    96.590347    405.40912            0    587.36113   -6044.1037   -33.444113      15.4361       15.394       15.438            0            0            0    348.22253    -1271.259    3453.2994    1384.0846    -3025.943    2271.7353 
  132000    3668.4289      277.676   -53.922362    242.51592   -721.79871   -479.28279   -482.16765    4.9563929    4710.6868   -1330.7512    94.352921    110.58465    404.01496            0    608.95253   -6046.3944   -33.444113      15.4361       15.394       15.438            0            0            0   -4109.7369   -224.93972    2316.0078   -2007.0747   -3893.6991    5739.0068 
  133000    3668.4289    321.09106    174.74853    280.43365    -704.1264   -423.69275   -414.34365   -11.490666    4724.2407   -1329.5999    85.940268    138.72831    400.80488            0    625.47346   -6042.3499   -33.444113      15.4361       15.394       15.438            0            0            0   -5126.9264   -1069.2912    -1576.743   -3182.5213    1037.6136    2669.1533 
  134000    3668.4289    308.37353   -686.08353    269.32646   -717.80653   -448.48007   -485.18573    9.4305115    4698.3603   -1334.2411    100.54923    115.04352    400.84178            0    616.43453   -6042.0319   -33.444113      15.4361       15.394       15.438            0            0            0   -4770.1303    1137.9139   -1532.4524    1191.2624   -4718.9759    1469.4629 
  135000    3668.4289    275.12522    1151.6492    240.28814   -732.92876   -492.64063   -431.02708   -15.146188     4719.478   -1340.2531    97.912759    110.76576    398.64582            0    607.32434   -6044.5849   -33.444113      15.4361       15.394       15.438            0            0            0   -1410.6129   -5628.4323   -2015.2887    4954.4862   -1828.6002    329.06169 
  136000    3668.4289    314.40246   -2913.1102    274.59199   -758.54805   -483.95607   -639.80825    2.1816432    4702.5142   -1340.0203    89.113196    101.18882    391.17025            0    581.47227   -6044.7162   -33.444113      15.4361       15.394       15.438            0            0            0   -3067.0971    814.25103    -321.7273   -2908.3391   -4011.0892   -1819.9023 
  137000    3668.4289     299.1031    -17.14217    261.22987   -731.71115   -470.48128   -471.39839    6.1617719    4715.1046   -1318.9292     83.61749    101.17495    402.42562            0    587.21806   -6040.1956   -33.444113      15.4361       15.394       15.438            0            0            0   -80.153499    2097.0701    452.06235    2148.0448   -2828.7173    629.24601 
  138000    3668.4289    299.61083   -1404.6308    261.67332   -733.81808   -472.14477    -547.2929   -1.3048479    4701.7975   -1344.8547    92.916417     115.7756    402.34459            0     611.0366   -6045.3474   -33.444113      15.4361       15.394       15.438            0            0            0    -2033.321   -3918.4979   -582.10696   -2238.0162   -1019.0884    -956.7878 
  139000    3668.4289    303.64499   -1333.9153    265.19665   -719.87136   -454.67471   -526.03954   -32.503679    4732.7003   -1342.1799    97.642125    118.58711    406.07935            0    622.30858   -6042.3765   -33.444113      15.4361       15.394       15.438            0            0            0    193.33594   -7406.7835    84.210546   -681.83791   -1394.2297   -1925.6782 
  140000    3668.4289    275.08809   -2240.5106    240.25571   -737.46155   -497.20584   -617.07377   -15.287287    4723.4828   -1335.9787     88.45325    111.93193    398.13198            0    598.51716   -6044.1742   -33.444113      15.4361       15.394       15.438            0            0            0    3285.3351    1509.0181   -1200.0818   -726.27812   -2853.1064   -3142.1474 
  141000    3668.4289    276.65537    3085.4846    241.62453   -733.65397   -492.02944   -326.95518    31.535828    4671.0645   -1339.4908     89.97192    112.47957    403.38535            0    605.83684   -6042.0911   -33.444113      15.4361       15.394       15.438            0            0            0     21.10371    2208.6588   -2429.8901    1568.1089    7735.0884   -46.743531 
  142000    3668.4289    308.39768    4165.6271    269.34755   -739.61516   -470.26762   -247.40543    41.637874    4646.8574   -1352.3747    98.703036     117.7987    396.25775            0    612.75949   -6040.8699   -33.444113      15.4361       15.394       15.438            0            0            0    246.52325   -2184.9899   -3597.0497    9679.0757    2396.7182    421.08737 
  143000    3668.4289    287.66639   -4228.5047    251.24131   -750.19572   -498.95441   -725.18056    20.226108    4662.8327   -1361.6121    106.65278    102.40142    402.36221            0     611.4164   -6044.6709   -33.444113      15.4361       15.394       15.438            0            0            0   -128.32532    5323.0935   -5464.9972   -859.26151    3134.8115   -14961.064 
  144000    3668.4289    300.18747    6092.8112    262.17693   -735.84811   -473.67118   -147.70412    4.8624672    4703.0633   -1334.5574    84.192061     117.5347    396.98256            0    598.70932   -6042.4832   -33.444113      15.4361       15.394       15.438            0            0            0     -613.359     3555.831   -2694.9816    9517.1458    5648.3364    3112.9512 
  145000    3668.4289    287.02984    920.03488    250.68536   -756.36239   -505.67703   -456.45492    23.915136    4660.6931   -1356.3663    88.038962    115.77366    396.19131            0    600.00393   -6040.9745   -33.444113      15.4361       15.394       15.438            0            0            0    1787.6906    386.70481    674.74923    3037.7969    2604.6842   -2882.3765 
  146000    3668.4289    315.63031     3981.426    275.66436   -722.47138   -446.80703   -233.79965    19.178173    4700.0118   -1327.8861    93.933213    112.14573    399.33574            0    605.41469   -6047.0761   -33.444113      15.4361       15.394       15.438            0            0            0   -6419.5052   -1660.7102   -1085.0877    2699.2102    4378.6618    4866.4061 
  147000    3668.4289    279.21228   -2636.8842    243.85768   -713.55294   -469.69526   -610.76928    11.793301    4697.5419   -1330.4387    104.12687    118.04571    394.71322            0     616.8858   -6039.7739   -33.444113      15.4361       15.394       15.438            0            0            0   -2367.6629    311.23829     2593.059   -2743.7856   -6781.2446    1614.3778 
  148000    3668.4289    281.67138    759.86329     246.0054   -739.13131   -493.12591   -452.47302    16.055992    4688.4527   -1337.6997     92.70512    111.11935    394.74393            0     598.5684   -6042.2084   -33.444113      15.4361       15.394       15.438            0            0            0    676.40411    3613.2471   -4183.4876    -2004.729     4786.215   -501.89612 
  149000    3668.4289    301.53867   -493.76247    263.35704   -725.11185   -461.75481   -488.17123    11.311561    4693.7553   -1342.7686    99.642293    116.91677    401.09772            0    617.65678   -6047.8354   -33.444113      15.4361       15.394       15.438            0            0            0    1004.6324    2932.1038    275.96192   -5820.4513    58.699867    4280.4641 
  150000    3668.4289    289.67978    519.35351    252.99976   -737.16058   -484.16082   -456.37527    34.026752     4664.203   -1347.1267     99.51228    109.60008    400.85372            0    609.96608   -6045.3564   -33.444113      15.4361       15.394       15.438            0            0            0   -751.62122   -1446.3696    2091.9415    476.20759    3657.1315   -2575.2786 
  151000    3668.4289    317.67681     5264.885    277.45173   -735.66465   -458.21292   -176.54014    10.166815    4707.3855   -1325.4146    81.650786    111.17721    396.92199            0    589.74998    -6042.967   -33.444113      15.4361       15.394       15.438            0            0            0    1827.4371   -1012.3806    406.12275    5293.7706     6156.176    4344.7084 
  152000    3668.4289    282.57427      2770.16    246.79397   -743.74145   -496.94748   -348.74317    24.237077     4675.008   -1343.7102    89.246834    114.73493    395.98699            0    599.96876   -6042.9553   -33.444113      15.4361       15.394       15.438            0            0            0   -626.21052   -533.14113   -529.60066     7137.887    1286.0139   -113.42088 
  153000    3668.4289    307.72434    3510.7269    268.75947   -744.58281   -475.82334   -287.99849    13.543723     4682.979   -1346.9395    87.444929    114.69638    400.21534            0    602.35665   -6043.4622   -33.444113      15.4361       15.394       15.438            0            0            0    5997.9773   -4142.1536   -699.80262    3619.3531    550.77947    6362.0482 
  154000    3668.4289      303.411    1456.9485     264.9923   -713.03432   -448.04202   -370.09488    12.637676    4703.0279   -1325.6964    92.571508    118.27316    401.81736            0    612.66203   -6041.3619   -33.444113      15.4361       15.394       15.438            0            0            0    1568.4986    2956.2692   -646.07476   -1155.8778    2531.2944    2995.4288 
  155000    3668.4289    291.06077    1802.2232    254.20588   -741.89074   -487.68485   -391.26542    38.039659    4661.1786   -1343.9579    83.520099    117.20616    401.34089            0    602.06715   -6043.1762   -33.444113      15.4361       15.394       15.438            0            0            0    1961.9474   -1140.9795    26.130224    2162.2947    -392.4194    3636.7942 
  156000    3668.4289    287.26791   -505.19951    250.89328   -751.28457   -500.39129    -527.4196    17.252444    4641.6743   -1383.2885    101.07228    134.01833    396.91337            0    632.00398   -6042.2153   -33.444113      15.4361       15.394       15.438            0            0            0    665.09686    727.71674   -7909.9572    317.39946     4046.537    -5879.535 
  157000    3668.4289    294.69628    -1916.887    257.38105   -763.78427   -506.40322   -608.95719    36.005284    4628.3644   -1378.3714    97.610892    120.00555    396.97071            0    614.58715   -6042.7411   -33.444113      15.4361       15.394       15.438            0            0            0   -2256.3986   -30.683465   -397.81757    -477.4534    289.35432   -5562.5619 
  158000    3668.4289    304.88947    4027.4953    266.28355   -746.02916    -479.7456   -264.27351    -10.68766    4717.4345   -1338.2617    86.292608    106.39305    399.54693            0    592.23259   -6045.0086   -33.444113      15.4361       15.394       15.438            0            0            0    612.88583     4911.667     1736.064    5958.4043   -2740.0822    8864.1637 
  159000    3668.4289    293.27776    1756.6153    256.14215   -725.76105    -469.6189   -375.63951    20.698332    4704.4269   -1320.1641     94.87766    99.729678    399.79567            0    594.40301   -6045.2893   -33.444113      15.4361       15.394       15.438            0            0            0   -1008.3895   -221.53757     650.5027    5586.1813     2138.754   -2455.0894 
  160000    3668.4289    309.12012    389.09849    269.97851   -761.43726   -491.45875   -470.64187    25.189847    4665.5738   -1354.2338    101.27882    96.687038    394.83071            0    592.79657   -6044.9975   -33.444113      15.4361       15.394       15.438            0            0            0    3419.3649   -374.12166   -4582.9258   -2675.2946    4356.0091   -513.41907 
  161000    3668.4289    299.60443   -1581.3981    261.66772   -734.69518   -473.02746   -557.63269    13.560951    4682.0846   -1348.8454    101.04093    111.54603    401.56326            0    614.15023    -6044.491   -33.444113      15.4361       15.394       15.438            0            0            0    376.50634    783.70622   -785.08314    -7201.739   -1754.7429    4212.2877 
  162000    3668.4289    275.56093   -4597.4011    240.66868   -738.52657   -497.85789   -743.82011   -11.609467     4703.691   -1353.9752     92.78994    120.86194    401.79672            0     615.4486   -6046.0567   -33.444113      15.4361       15.394       15.438            0            0            0    2407.6166   -2797.0697    -1996.451   -2878.9431   -7263.3247   -3649.9355 
  163000    3668.4289    321.35856    1237.9994    280.66729   -739.35331   -458.68602   -392.45272    9.1642876    4679.4555   -1352.1445    98.725028     119.0221    395.04408            0    612.79121   -6040.7643   -33.444113      15.4361       15.394       15.438            0            0            0    3834.8129    421.15558   -2023.9032    663.13426    4126.4866   -1075.6226 
  164000    3668.4289    265.84758   -4453.4478    232.18526   -746.70068   -514.51542   -752.77609   -6.0292241    4670.5998   -1377.7379    90.211477    133.88149    406.94421            0    631.03718   -6042.3085   -33.444113      15.4361       15.394       15.438            0            0            0    3829.8599    4720.3274   -2266.5786   -5016.6522   -4299.2144   -4044.4768 
  165000    3668.4289    293.45435    782.74012    256.29638   -722.38021   -466.08384   -424.20703    4.7345226    4689.2847   -1345.4891    97.652915    126.79734     398.6586            0    623.10886   -6039.5083   -33.444113      15.4361       15.394       15.438            0            0            0    1366.2689   -2965.5411     6149.667   -167.32694   -155.36329    2670.9106 
  166000    3668.4289    280.04086    3977.1279    244.58134   -729.88855   -485.30721   -272.52979   -2.6560691    4699.9698   -1345.2144     89.92425    124.45463    400.94696            0    615.32585   -6042.5282   -33.444113      15.4361       15.394       15.438            0            0            0   -302.07731     3056.935   -3595.2726     5329.183    2466.7497    4135.4509 
  167000    3668.4289    301.61427   -5474.0135    263.42307   -743.18789   -479.76482   -772.62603    4.4227074     4661.751   -1375.9056    105.08255     125.9829    401.65227            0    632.71772   -6042.0794   -33.444113      15.4361       15.394       15.438            0            0            0   -2824.6746    3159.4008    620.27945   -866.18732   -8646.8635   -6908.9896 
  168000    3668.4289    327.38319    2985.7747    285.92907   -742.90658   -456.97752   -297.23776    21.711395    4649.7407   -1375.5646    89.220203    142.50018    400.93767            0    632.65805   -6047.0167   -33.444113      15.4361       15.394       15.438            0            0            0     1262.786   -2060.7397   -1484.7032     2783.244    321.78203     5852.298 
  169000    3668.4289    294.85397    3061.6018    257.51878   -738.10214   -480.58336   -316.78683    1.5230784    4707.1932   -1336.7405    80.211562    110.14689    408.27988            0    598.63834   -6045.4568   -33.444113      15.4361       15.394       15.438            0            0            0    4806.4446    3032.8624    1236.9509    567.48708    3034.4924    5582.8259 
  170000    3668.4289    288.96511    1204.0635    252.37558   -722.24859   -469.87301   -405.45528     15.46645    4673.4369   -1354.7698    104.51838    124.23097    403.77187            0    632.52122   -6043.6731   -33.444113      15.4361       15.394       15.438            0            0            0   -5125.8217   -770.48776   -4493.8544   -749.99631    2924.6859     1437.501 
  171000    3668.4289    294.05013   -3635.6552    256.81672   -752.97637   -496.15965   -690.66819    2.2377384    4686.2741   -1352.7338    91.663252    115.04362    393.05058            0    599.75745   -6041.2457   -33.444113      15.4361       15.394       15.438            0            0            0   -2684.9379   -570.95381    1160.1122    -1351.858   -8441.2558   -1113.8518 
  172000    3668.4289     287.4996    2341.5255    251.09564   -710.53922   -459.44359   -334.17134   -3.9575617    4713.4404   -1334.1334    93.104231    124.63286    405.85707            0    623.59416   -6043.6163   -33.444113      15.4361       15.394       15.438            0            0            0    359.48384   -5554.3874    3224.8122    1212.7401    4667.4737    1144.3626 
  173000    3668.4289    299.14249    348.91741    261.26427   -759.58862   -498.32434   -479.65717    16.002754    4657.7194   -1370.0306    87.602677    125.17427    397.66505            0    610.44201   -6043.7528   -33.444113      15.4361       15.394       15.438            0            0            0   -1795.7526   -3613.0868   -648.66031    3011.7667   -220.17964   -1744.8348 
  174000    3668.4289    278.66111    64.266937     243.3763   -743.63448   -500.25818   -496.81988    6.1605645    4675.5137   -1362.6334    90.542471    132.48266    395.97381            0    618.99894   -6044.3077   -33.444113      15.4361       15.394       15.438            0            0            0    4194.5952   -1369.9969    1661.2834   -1326.1089   -1964.9626    3483.8722 
  175000    3668.4289    301.77683    3231.6327    263.56505   -737.21361   -473.64857   -300.75534    4.6403423    4691.1081   -1348.5485    85.724222    123.53561    402.07507            0     611.3349    -6044.297   -33.444113      15.4361       15.394       15.438            0            0            0    1703.5923   -584.76295     683.9979   -86.465035    4895.2529    4886.1102 
  176000    3668.4289    318.61345    8273.7219    278.26977   -747.53941   -469.26965   -26.623272    31.899132    4657.3895    -1356.565    84.763635    119.17587    405.08609            0     609.0256   -6045.8536   -33.444113      15.4361       15.394       15.438            0            0            0    -1672.359    2244.0581   -1351.2163    7731.1735    4264.2524     12825.74 
  177000    3668.4289    290.68896    842.16925    253.88115     -730.542   -476.66085   -431.60457    45.298255    4647.3641   -1351.6399    91.717694     127.7557    401.62446            0    621.09786   -6044.3022   -33.444113      15.4361       15.394       15.438            0            0            0   -2657.3811    1709.2443    2043.9874    866.13029    407.74232    1252.6351 
  178000    3668.4289    294.80307    819.96607    257.47433   -752.26586   -494.79153   -450.92313    33.224952    4638.9181   -1371.4461    88.853248    131.44168     398.8853            0    619.18023   -6043.5892   -33.444113      15.4361       15.394       15.438            0            0            0    711.92014   -781.71876    817.86409   -77.895038   -2469.4213    5007.2146 
  179000    3668.4289    269.70954   -3042.1457    235.55821    -769.3455   -533.78729   -696.54291      1.38268    4673.3898   -1369.9024    90.695407     112.1094    397.75205            0    600.55686   -6044.6748   -33.444113      15.4361       15.394       15.438            0            0            0   -1384.8804    77.219901   -1606.7821   -4700.2145   -5212.9703    786.74779 
  180000    3668.4289    299.05601    2007.7173    261.18874   -743.02374     -481.835   -374.42158    4.7576428    4685.7148   -1355.0604    86.780167    122.20462    403.05184            0    612.03662   -6045.5328   -33.444113      15.4361       15.394       15.438            0            0            0   -217.87659    1267.6128    619.01734     5556.521    2928.2809     -2461.65 
  181000    3668.4289    297.78063   -2154.8385    260.07485   -736.27071   -476.19585    -591.4803   -14.960229    4713.2608   -1344.2768    89.087562    119.37979    399.53871            0    608.00607   -6042.5774   -33.444113      15.4361       15.394       15.438            0            0            0    2443.7017   -44.741221    165.27251   -3729.3522   -2058.8414   -676.32196 
  182000    3668.4289    303.11864   -113.22137    264.73695    -758.1383   -493.40135   -499.45873    0.1010995    4654.4351   -1391.3812    89.608063    140.45953    403.17535            0    633.24294   -6045.9175   -33.444113      15.4361       15.394       15.438            0            0            0   -1212.6494   -793.14616   -5765.7445    944.60767   -2688.3733    1404.1015 
  183000    3668.4289    316.38385     1769.752    276.32248   -744.19744   -467.87495   -373.19274   -6.6343081    4716.9016   -1334.0917    81.690296    109.97906     398.2249            0    589.89425   -6044.3589   -33.444113      15.4361       15.394       15.438            0            0            0    1882.3874    2051.1096    6343.7812    1774.5893    2945.8349    588.83166 
  184000    3668.4289    304.12237   -36.337863    265.61358   -734.62724   -469.01365   -470.95774  -0.98919018    4701.7217   -1346.5596    86.083519    124.43198    401.41687            0    611.93236   -6047.2921   -33.444113      15.4361       15.394       15.438            0            0            0    3423.1079   -896.14852    1362.8999   -283.39497    -2322.921    2497.3023 
  185000    3668.4289    304.36159   -6426.3976    265.82252   -722.64107   -456.81855   -800.63257   -3.9225246    4710.2668   -1336.3817    98.819968    113.08582    401.83483            0    613.74062   -6042.7259   -33.444113      15.4361       15.394       15.438            0            0            0    -2363.621    -2300.997     1862.731   -14063.618   -4078.7641    -1136.811 
  186000    3668.4289    332.25705   -1067.7055    290.18578   -725.12149   -434.93571   -492.05825    5.0546105    4712.5882   -1325.7662    95.486511    106.53637    398.62186            0    600.64475    -6043.409   -33.444113      15.4361       15.394       15.438            0            0            0   -5490.7077   -3044.7576    2705.5369   -860.30697   -1667.8764    -674.9331 
  187000    3668.4289    277.72599    505.90604    242.55958    -731.4421   -488.88252   -461.81641  -0.28220275    4685.9414   -1357.6933    91.001797    134.42146    400.82794            0     626.2512   -6043.3525   -33.444113      15.4361       15.394       15.438            0            0            0   -1231.0424    1496.4049    1507.4963      1440.04     3144.141   -3066.4629 
  188000    3668.4289    308.87668    -2460.002     269.7659   -736.26295   -466.49706   -598.10784   -1.0078882    4698.2394   -1347.2152    89.710805    119.38485    401.85655            0    610.95221   -6044.4467   -33.444113      15.4361       15.394       15.438            0            0            0    3592.8583   -535.41462    -707.0179   -2917.8857   -1088.5341   -3373.5863 
  189000    3668.4289    304.63503    1087.1624    266.06134   -746.46433   -480.40299   -422.23951    -1.395992    4704.0996   -1341.0578    90.562644    103.73794    400.29288            0    594.59346   -6043.7614   -33.444113      15.4361       15.394       15.438            0            0            0    1323.9973    1902.5624    1751.5541   -1568.1812    4157.1367    672.53159 
  190000    3668.4289    306.61259   -7147.9451    267.78849   -733.71765   -465.92917   -848.34617   -3.2536636    4708.4812   -1338.9496    102.43797    105.78711    397.00689            0    605.23198   -6044.1771   -33.444113      15.4361       15.394       15.438            0            0            0    4854.3196    1868.9889   -2305.7015   -4475.6191   -9531.8502   -7436.3661 
  191000    3668.4289    261.94225   -152.32516    228.77443   -724.07366   -495.29923   -503.44867   -4.5504843    4691.2786   -1357.0221    88.640975    139.47163    404.83587            0    632.94847   -6043.7503   -33.444113      15.4361       15.394       15.438            0            0            0    4415.6253    186.50267    42.051618   -2953.8706    505.74682    1991.1483 
  192000    3668.4289    303.87421   -2442.4783    265.39685   -719.39299   -453.99614   -584.66939   -8.2349492    4711.4276   -1339.6606    89.660763    127.29969    403.30717            0    620.26762   -6042.8533   -33.444113      15.4361       15.394       15.438            0            0            0    1604.4061    3191.1261   -1079.0567   -7564.1166    6625.5582   -6388.8763 
  193000    3668.4289    293.82378   -186.66897    256.61903   -732.31186   -475.69283   -485.67967   -14.665423    4714.7594   -1342.9814    94.375787    113.80906    402.48473            0    610.66958   -6043.0754   -33.444113      15.4361       15.394       15.438            0            0            0    1419.3516   -2978.7256    -877.7941   -543.52137   -538.24342    521.75789 
  194000    3668.4289    292.62909   -1087.1965    255.57561   -726.86407   -471.28846   -529.45377    20.980588    4679.7897   -1343.6825    96.898594    129.38903    390.53075            0    616.81838   -6044.4528   -33.444113      15.4361       15.394       15.438            0            0            0    4891.4957    2911.2203   -2031.5142   -2866.1029   -527.84763    132.36096 
  195000    3668.4289    309.48061    914.49088    270.29336    -724.9183   -454.62494   -405.69943    22.365291    4682.7668   -1336.3656    97.876133    120.82152    392.74965            0     611.4473   -6041.4977   -33.444113      15.4361       15.394       15.438            0            0            0    3273.1388    574.59679    -243.5555    4683.8038   -4039.0577    2098.7265 
  196000    3668.4289    284.22638   -2092.7037    248.23688   -713.70809   -465.47121   -577.43143   -15.553318    4724.2134   -1333.3475    91.542419    128.24258    399.85438            0    619.63938   -6042.0076   -33.444113      15.4361       15.394       15.438            0            0            0   -1436.1702    728.70309    1407.0194   -3802.1287    299.15626   -2775.1385 
  197000    3668.4289    326.68156   -677.94068    285.31627   -735.05464   -449.73837   -486.00838    8.9377161    4694.5073   -1341.0021    80.612062    123.20129    402.13415            0     605.9475   -6044.4472   -33.444113      15.4361       15.394       15.438            0            0            0   -1625.8856   -575.46818   -4399.2936   -1725.1151    1528.3704   -1837.0773 
[...]
 9955000    3668.4289    278.31795   -3765.0548    243.07659   -716.22633   -473.14974    -674.5812   -16.956181    4726.9773   -1330.8366    91.871307    112.88993      409.849            0    614.61024   -6040.8577   -33.444113      15.4361       15.394       15.438            0            0            0    582.02559   -287.47439    4633.5883   -3443.9465   -1.3987627   -7849.8192 
 9956000    3668.4289    283.59172   -1377.3821    247.68258   -730.95783   -483.27524   -556.96556    5.9657268    4700.7834   -1337.8227    92.879192    109.44999    404.53571            0     606.8649   -6044.5719   -33.444113      15.4361       15.394       15.438            0            0            0    2275.7861    5070.3608    848.80686   -675.33554   -2226.7273   -1230.0836 
 9957000    3668.4289    295.31034   -1558.1042    257.91736   -733.79438   -475.87702   -559.23602    9.8924319     4681.359   -1340.9973    86.548901    121.56938    399.08462            0     607.2029   -6032.2487   -33.444113      15.4361       15.394       15.438            0            0            0   -6008.5654    834.91167   -1300.1412   -4042.0467   -1786.5499    1154.2841 
 9958000    3668.4289    292.81107    1565.5369    255.73455   -703.15625    -447.4217   -363.66505    48.529343     4671.939    -1319.724    93.671609    124.31645    398.57968            0    616.56774   -6040.1923   -33.444113      15.4361       15.394       15.438            0            0            0    1189.1099   -119.52214   -2225.7619   -3094.3828    5315.0508    2475.9428 
 9959000    3668.4289    270.47288     215.7868    236.22488   -721.22941   -485.00453   -473.45987   -1.5849551    4711.9905   -1328.0688    86.363781    115.70254    404.77303            0    606.83935   -6038.4743   -33.444113      15.4361       15.394       15.438            0            0            0    2066.0968   -2153.3745   -746.25531   -651.78152    1410.0503   -110.90835 
 9960000    3668.4289     286.9611    829.95275    250.62532   -715.99185   -465.36653   -420.96383    31.669687    4679.4535   -1326.9027    89.460067    123.64577      397.805            0    610.91084   -6038.0259   -33.444113      15.4361       15.394       15.438            0            0            0   -435.01772    2850.9195    1816.8861   -268.25525    1390.1436    1367.9699 
 9961000    3668.4289    304.65398    851.58925    266.07789   -707.34149    -441.2636   -395.70335    10.748965    4689.6772   -1337.7941    89.963927    142.35454    398.13415            0    630.45262   -6038.2202   -33.444113      15.4361       15.394       15.438            0            0            0   -626.51662    285.00046   -2481.9317    6474.8921   -3855.7341   -64.390271 
 9962000    3668.4289    311.07612    2741.1027    271.68684   -752.05055   -480.36371   -333.71398    7.1662144    4680.0182   -1356.2508    83.862053    118.13465    402.20359            0    604.20029   -6043.4353   -33.444113      15.4361       15.394       15.438            0            0            0    1815.7646     365.1613   -3481.5819    4369.7512   -2431.7013    6285.2581 
 9963000    3668.4289    309.32094    5482.1362     270.1539    -715.1719   -445.01799   -151.72221   -1.0943379    4708.9302   -1337.2552    87.653759    129.81495     404.6146            0    622.08331   -6045.0911   -33.444113      15.4361       15.394       15.438            0            0            0   -2630.6374   -2787.7149    662.59992    2272.8522    8253.1987    5920.3578 
 9964000    3668.4289    313.86066   -2525.5873    274.11879   -710.25531   -436.13652   -571.25613    4.3777459    4708.4141   -1327.0785    89.645251    125.69704    401.48087            0    616.82316   -6039.8703   -33.444113      15.4361       15.394       15.438            0            0            0   -3532.1861   -305.29989   -1452.4951   -8619.8441    1202.9577    -159.8756 
 9965000    3668.4289    278.10326    2580.5201    242.88909   -726.17487   -483.28578   -345.22725  -0.86074615    4698.3311   -1341.3429    89.913809    119.32896    405.92522            0    615.16798   -6038.8132   -33.444113      15.4361       15.394       15.438            0            0            0    2903.5523    148.92759    1851.0245    1352.9888    2249.8474    4138.7241 
 9966000    3668.4289    299.96955    808.55892    261.98661   -745.53479   -483.54818   -440.29006   -6.1211022    4698.7292   -1347.9617    76.695642    129.35238    396.37888            0    602.42691   -6040.5698   -33.444113      15.4361       15.394       15.438            0            0            0    1396.6338   -1518.4013    2354.6068    4240.8412    2399.9659   -4215.1304 
 9967000    3668.4289     304.8418   -1565.1674    266.24193   -741.23192      -474.99   -558.72687   -18.122685    4697.4857   -1362.9171    84.064109    134.93679    402.68429            0     621.6852   -6042.2802   -33.444113      15.4361       15.394       15.438            0            0            0    1708.2118   -124.07783     1358.783   -954.83959   -3701.6355   -39.026913 
 9968000    3668.4289    293.24668   -2855.5856      256.115    -739.9111    -483.7961    -636.5707   -2.1212911    4692.2648   -1353.2836    89.298505    116.96866    407.10535            0    613.37251   -6043.4271   -33.444113      15.4361       15.394       15.438            0            0            0    1993.7706    329.34916   -178.94694   -5059.7676   -5472.4979    1965.5088 
 9969000    3668.4289    332.71921    1500.8521    290.58942    -701.7009   -411.11148   -330.81548    12.063733    4705.9461   -1319.4657    83.814321    133.24624    400.70428            0    617.76484   -6037.4756   -33.444113      15.4361       15.394       15.438            0            0            0    604.95344    1380.5822   -2945.3967    4549.2618    3572.3584   -3619.0639 
 9970000    3668.4289    301.91419    -1396.206    263.68501   -725.75562   -462.07061   -536.76801     14.60252    4707.2738   -1320.5888    88.076052    118.88582     387.8713            0    594.83317   -6042.4651   -33.444113      15.4361       15.394       15.438            0            0            0    1903.7626    1793.7763    3644.9748   -1451.5546   -2797.4713    60.408092 
 9971000    3668.4289    307.87691    308.28519    268.89272   -737.94708   -469.05436   -452.56102    4.8945143    4683.3411   -1351.7949    90.883102    118.20553    404.75917            0     613.8478   -6040.0305   -33.444113      15.4361       15.394       15.438            0            0            0     720.0919     1226.214   -1270.4572    816.13959    -1248.866     1357.582 
 9972000    3668.4289     284.5356    1101.4693    248.50694   -742.39327   -493.88632   -434.95742   -5.3092467    4705.1301   -1343.7994     90.23449    112.45116    398.72053            0    601.40618   -6043.6203   -33.444113      15.4361       15.394       15.438            0            0            0    889.50913   -3588.8014   -1502.0276   -797.04915     1427.936     2673.521 
 9973000    3668.4289    282.94322   -3211.7117     247.1162   -737.09612   -489.97992   -661.80737    12.819722    4684.6582   -1340.4823    88.179384    117.38042    397.82635            0    603.38615   -6037.9602   -33.444113      15.4361       15.394       15.438            0            0            0   -685.17719    350.38817    2739.6025   -6296.7508    1440.2865   -4778.6707 
 9974000    3668.4289    299.71324   -4736.3173    261.76276   -731.68434   -469.92159   -723.31585   -28.000652     4729.637   -1343.4126    96.287407     117.1714    398.26947            0    611.72827    -6045.049   -33.444113      15.4361       15.394       15.438            0            0            0   -190.23715    3019.7761    2913.9242   -5167.4876   -7243.6825   -1797.7817 
 9975000    3668.4289    320.87005   -3056.7626    280.24063   -729.48116   -449.24053   -612.77816    10.588091    4687.5014   -1345.1255    96.614913    123.65572    395.37367            0     615.6443   -6043.2149   -33.444113      15.4361       15.394       15.438            0            0            0   -2333.6331    2940.7082    3151.6625   -1562.2537   -2423.8815   -5184.1527 
 9976000    3668.4289     316.0555    1128.8761    276.03572   -742.55425   -466.51853   -406.12335    17.558614    4655.7538   -1366.3923    93.672048    127.52675     402.6393            0     623.8381   -6039.7047   -33.444113      15.4361       15.394       15.438            0            0            0    7128.1391    643.38138    418.19873    1695.3221    876.13339    815.17273 
 9977000    3668.4289    294.35103    -1106.588    257.07952   -723.11071   -466.03119   -525.23395   -7.8431902    4700.2875   -1349.9974    90.567902    137.74653    398.57229            0    626.88673   -6042.4417   -33.444113      15.4361       15.394       15.438            0            0            0    924.19388   -2094.3045    242.07278   -5055.5099    502.03797    1233.7079 
 9978000    3668.4289    286.68893   -1317.4196    250.38761   -740.02916   -489.64154   -560.12385    10.574923    4685.0828    -1349.053    87.048748    128.11544    393.85968            0    609.02387   -6044.7108   -33.444113      15.4361       15.394       15.438            0            0            0   -1813.7416    3887.5009    2373.1343   -5018.5282    6041.3435    -4975.074 
 9979000    3668.4289     302.1273   -1675.8785    263.87114     -746.773   -482.90186   -572.56181   -11.044119    4710.1971   -1342.1027    81.429016    117.59618    396.30454            0    595.32973   -6041.2557   -33.444113      15.4361       15.394       15.438            0            0            0    2747.0559    292.64277   -1334.0034   -672.62631   -2913.2075   -1441.8016 
 9980000    3668.4289    309.66319    1520.3803    270.45281   -713.85361    -443.4008   -362.06004    22.561629    4660.0479   -1357.3716     105.5061    138.30196     399.7099            0    643.51795   -6039.9811   -33.444113      15.4361       15.394       15.438            0            0            0   -1526.8494    5361.8397    1510.9941   -4174.1252    8716.5409    18.725245 
 9981000    3668.4289    287.47697   -2502.2398    251.07587   -733.33725   -482.26138   -616.13189   -17.978715    4733.2463   -1325.2822    80.254025    117.84736    393.84358            0    591.94497   -6040.5498   -33.444113      15.4361       15.394       15.438            0            0            0     387.3291    20.713159   -9.8843341   -2891.6271   -3471.8282   -1143.2639 
 9982000    3668.4289    303.16627   -764.77182    264.77856   -729.93988   -465.16133   -506.07683   -4.5082915    4711.5984   -1337.5355    93.568581    112.65945    401.36758            0    607.59561   -6044.6256   -33.444113      15.4361       15.394       15.438            0            0            0    1395.4641   -950.39916    790.94044    284.66843     3458.524   -6037.5079 
 9983000    3668.4289    310.02265   -3545.9775    270.76676   -712.99735   -442.23059   -631.94135    5.4742951    4700.7809   -1335.9018    93.844742    130.53235    398.52732            0    622.90442    -6042.157   -33.444113      15.4361       15.394       15.438            0            0            0   -618.26633   -389.26364    446.89264   -4111.9333   -3089.8701   -3436.1292 
 9984000    3668.4289    283.39044    405.87915    247.50679   -724.87069    -477.3639   -455.64926    27.254879    4667.8056   -1345.9096    96.550232    126.06223    398.42649            0    621.03895   -6040.9702   -33.444113      15.4361       15.394       15.438            0            0            0    4522.6204   -1866.0424   -2710.0367    1574.6021    3293.7397   -3650.7044 
 9985000    3668.4289    317.14441   -3933.1565    276.98674   -725.99914    -449.0124   -659.43735    2.4198996    4691.5463   -1345.7087    94.450606    120.32816    404.93081            0    619.70958   -6039.6749   -33.444113      15.4361       15.394       15.438            0            0            0   -1672.7088    4583.9163     2212.245   -281.68344   -9363.9326   -2153.8534 
 9986000    3668.4289    288.99585    3688.6884    252.40243   -724.02383   -471.62141   -274.27557    13.359515    4691.9385   -1336.4915    84.698406    132.70893    395.06028            0    612.46762   -6041.7895   -33.444113      15.4361       15.394       15.438            0            0            0    1342.4494    681.57091    4047.5929   -509.65083    1794.6183    9781.0978 
 9987000    3668.4289    335.81167   -1331.4041    293.29031   -737.93304   -444.64274   -515.87322    21.639014    4680.2453   -1341.7546    96.757035    113.61511    393.44941            0    603.82156   -6043.6389   -33.444113      15.4361       15.394       15.438            0            0            0   -2013.7805   -489.86524    5189.4503    2058.0308    2538.4809    -8590.724 
 9988000    3668.4289    299.63392   -326.23832    261.69348   -707.87248   -446.17901   -463.63285    29.861844    4669.6408   -1337.0998    87.162998    136.12812    405.93616            0    629.22727   -6036.6024   -33.444113      15.4361       15.394       15.438            0            0            0   -292.97899   -2507.7455    115.64555    5348.1057   -618.55141   -5708.2693 
 9989000    3668.4289    305.05993     2569.114    266.43243   -716.04162    -449.6092    -312.1609  -0.33986502    4711.8171   -1329.4056    86.400492    128.16205    398.80139            0    613.36393   -6040.8828   -33.444113      15.4361       15.394       15.438            0            0            0   -1444.9568   -2616.1476    1594.2641    2610.3379     7003.722   -1906.7179 
 9990000    3668.4289    298.10231    301.74713    260.35581   -721.74785   -461.39204   -445.24849    12.909519    4708.6522   -1318.8843    86.097654    115.75111    395.28771            0    597.13648   -6040.4461   -33.444113      15.4361       15.394       15.438            0            0            0   -2636.7492   -1081.2902    208.90627    1817.8921    3516.6677   -4429.3184 
 9991000    3668.4289     302.5194   -2036.2478    264.21359   -719.84669    -455.6331   -564.57291    6.7648359    4717.7821   -1318.1084    94.315159    110.48628    393.46031            0    598.26175   -6042.6554   -33.444113      15.4361       15.394       15.438            0            0            0    -5769.467   -2582.8832   -3947.2954   -2169.9847    697.43504   -4636.1938 
 9992000    3668.4289    283.20492    1377.8878    247.34476   -743.03808   -495.69333   -421.97595    19.375285    4664.4202   -1356.6327    85.949642    133.84663    393.79834            0    613.59462   -6040.4282   -33.444113      15.4361       15.394       15.438            0            0            0   -411.67141   -584.40248   -568.60976    6994.0931    1834.4636   -4694.8933 
 9993000    3668.4289    306.08721    4885.5876    267.32963   -721.91143    -454.5818   -193.20153    33.852337    4672.3987   -1333.5915    80.899072    136.06944    394.71155            0    611.68005   -6039.8425   -33.444113      15.4361       15.394       15.438            0            0            0   -898.13377    2092.5532    5170.6483    3141.4249    9708.4919    1806.8461 
 9994000    3668.4289    298.79659   -66.632275    260.96217   -739.67791   -478.71573   -482.28058   -6.4249079    4732.7523   -1317.7414    76.075653     107.9723    394.01551            0    578.06347   -6044.0687   -33.444113      15.4361       15.394       15.438            0            0            0   -694.96713    2851.2369    721.10046    2696.7591   -4341.4871    1444.8312 
 9995000    3668.4289    279.44644    75.486085    244.06219   -731.89048    -487.8283   -483.78977    27.634343     4647.439   -1360.1819    99.921858    129.43065     398.9389            0    628.29141   -6035.2553   -33.444113      15.4361       15.394       15.438            0            0            0    4023.1516    949.05712    271.17182   -1396.0064    2984.4107    -1361.946 
 9996000    3668.4289    319.85452    4241.7246    279.35369   -716.64968   -437.29599   -210.36257   -1.4499958    4704.9714   -1337.7035    78.532975    143.55005    398.97075            0    621.05377   -6041.2249   -33.444113      15.4361       15.394       15.438            0            0            0   -2187.1766    4040.5961    2481.3552    3948.5394    3347.5918    5429.0426 
 9997000    3668.4289    296.32765   -3495.5883    258.80585   -703.02445    -444.2186   -631.23352    3.2568941     4699.287    -1335.299    97.212946    130.72132     404.3403            0    632.27456   -6037.8429   -33.444113      15.4361       15.394       15.438            0            0            0    1558.8631   -693.41925   -3405.0895    3203.8194    -8605.575   -5085.0092 
 9998000    3668.4289    293.98858    4309.3067    256.76296    -709.2163   -452.45334   -221.90426    42.536266     4676.106   -1321.6474     92.11559    122.11811    398.19742            0    612.43112   -6040.2896   -33.444113      15.4361       15.394       15.438            0            0            0    213.50057    681.53929    53.942945    8849.7853    88.890607    3989.2442 
 9999000    3668.4289    282.23726   -291.64084    246.49963   -719.78893    -473.2893   -488.89216    3.3736639    4686.2473   -1349.4892     96.58866    127.17278    405.93888            0    629.70032   -6039.1102   -33.444113      15.4361       15.394       15.438            0            0            0   -2235.1662    3125.1399   -1224.3636   -1786.6932   -7.0279913     918.7987 
10000000    3668.4289    286.26093    1966.8844    250.01381   -706.11083   -456.09703   -350.86817     7.505117    4698.8649   -1336.6105    94.691772    131.78883    404.01908            0    630.49969   -6042.9806   -33.444113      15.4361       15.394       15.438            0            0            0   -774.66541   -3913.9758    -4717.676   -554.87194    2758.3767    3697.1486 
Loop time of 5508.93 on 4 procs for 10000000 steps with 294 atoms

Performance: 156.836 ns/day, 0.153 hours/ns, 1815.234 timesteps/s
93.3% CPU use with 4 MPI tasks x 1 OpenMP threads

MPI task timing breakdown:
Section |  min time  |  avg time  |  max time  |%varavg| %total
---------------------------------------------------------------
Pair    | 1396.6     | 1527.1     | 1652.5     | 315.7 | 27.72
Bond    | 125.57     | 126.07     | 127.5      |   7.3 |  2.29
Kspace  | 2733       | 2879.5     | 3022.6     | 249.6 | 52.27
Neigh   | 141.25     | 141.86     | 142.43     |   4.5 |  2.58
Comm    | 704.81     | 710.07     | 716.57     |  16.8 | 12.89
Output  | 3.4132     | 3.4753     | 3.6502     |   5.4 |  0.06
Modify  | 41.379     | 44.426     | 47.256     |  36.6 |  0.81
Other   |            | 76.36      |            |       |  1.39

Nlocal:    73.5 ave 76 max 71 min
Histogram: 1 0 0 0 1 0 1 0 0 1
Nghost:    1658 ave 1690 max 1617 min
Histogram: 1 0 0 1 0 0 0 0 1 1
Neighs:    8997 ave 9806 max 8595 min
Histogram: 2 0 1 0 0 0 0 0 0 1

Total # of neighbors = 35988
Ave neighs/atom = 122.408
Ave special neighs/atom = 4.87755
Neighbor list builds = 339036
Dangerous builds = 0


write_restart   restart.${NAME}
write_restart   restart.mol
PPPM initialization ...
  using 12-bit tables for long-range coulomb (src/kspace.cpp:332)
  G vector (1/distance) = 0.383154
  grid = 12 12 12
  stencil order = 5
  estimated absolute RMS force accuracy = 0.0217689
  estimated relative force accuracy = 6.55565e-05
  using double precision KISS FFT
  3d grid and FFT values/proc = 3211 432
write_data	data.*
PPPM initialization ...
  using 12-bit tables for long-range coulomb (src/kspace.cpp:332)
  G vector (1/distance) = 0.383154
  grid = 12 12 12
  stencil order = 5
  estimated absolute RMS force accuracy = 0.0217689
  estimated relative force accuracy = 6.55565e-05
  using double precision KISS FFT
  3d grid and FFT values/proc = 3211 432
Total wall time: 1:31:49
