LAMMPS data file via write_data, version 3 Mar 2020, timestep = 10000000

341 atoms
8 atom types
274 bonds
5 bond types
389 angles
8 angle types
420 dihedrals
6 dihedral types

0.0000000000000000e+00 1.6907299999999999e+01 xlo xhi
0.0000000000000000e+00 1.6920700000000000e+01 ylo yhi
0.0000000000000000e+00 1.6929800000000000e+01 zlo zhi

Masses

1 6.941
2 16
3 19
4 12.01
5 32.06
6 14.01
7 16
8 1.008

Pair Coeffs # lj/cut/coul/long

1 0.0182661 2.126
2 0.209859 2.96
3 0.0609584 3.118
4 0.109326 3.4
5 0.249833 3.564
6 0.169886 3.25
7 0.155323 3.165
8 0 0

Bond Coeffs # harmonic

1 492.67 1.466
2 363.556 1.344
3 248.733 1.782
4 256.929 1.752
5 529.23 1.012

Angle Coeffs # harmonic

1 41.2526 108.48
2 45.27 121.88
3 43.0716 107.06
4 81.1647 109.67
5 71.2115 107.16
6 39.3938 103.12
7 109.646 119.18
8 37.9249 113.24

Dihedral Coeffs # charmm

1 0.143897 3 0 0
2 0.143897 3 0 0
3 0.499666 3 180 0
4 6.79545 1 180 0
5 0.499666 3 180 0
6 6.79545 1 180 0

Atoms # full

2 2 1 8.0000000000000004e-01 1.1645242188481182e+00 3.2136531263988704e+00 1.9450822298737449e+00 2 -4 1
259 40 8 4.0999999999999998e-01 3.2953288527548219e+00 3.7560637086910971e+00 3.8773898768011761e+00 -4 -2 -2
258 40 7 -8.1999999999999995e-01 2.6185205517343175e+00 4.3098803955963039e+00 3.3881685915949213e+00 -4 -2 -2
268 43 8 4.0999999999999998e-01 3.5363024315720932e+00 6.2980065144163682e+00 6.7868108203801025e+00 0 0 -3
267 43 7 -8.1999999999999995e-01 3.9382492414972705e+00 5.7222261825581882e+00 7.5532342522014053e+00 0 0 -3
202 27 2 -4.6100000000000002e-01 1.0391692633569598e+00 6.6350322382909654e-01 5.0883786775948465e+00 0 0 1
195 27 2 -4.6100000000000002e-01 2.5855115628990837e+00 1.2143639401983943e+00 2.6604061446132867e+00 0 0 1
260 40 8 4.0999999999999998e-01 2.8841822665921799e+00 5.2869614055686078e+00 3.2353603021767818e+00 -4 -2 -2
209 27 3 -1.3800000000000001e-01 2.4846334925607256e+00 2.8886004349212269e+00 6.3186838831540602e+00 0 0 1
250 37 8 4.0999999999999998e-01 5.4294247752054074e+00 1.6389658942060610e+00 3.8545546661139687e+00 0 -4 2
207 27 3 -1.3800000000000001e-01 1.4542552076618127e+00 1.9215268989698657e+00 7.9125895327519435e+00 0 0 1
135 23 2 -4.6100000000000002e-01 5.0836560838141702e+00 7.7342320415889665e+00 9.3832995476056746e-01 -1 0 -1
201 27 6 -5.8799999999999997e-01 3.3562849702461635e+00 8.1288666465177878e-02 4.6506935455898946e+00 0 0 1
208 27 4 3.1900000000000001e-01 2.4193258660550185e+00 1.7510380488653665e+00 7.0290355772415278e+00 0 0 1
225 29 7 -8.1999999999999995e-01 7.1958197698881732e-01 5.2944245113014130e+00 1.3032457222314369e+00 2 1 3
256 39 8 4.0999999999999998e-01 1.0315809366696824e+00 6.4088225062467004e+00 5.3597837587070307e+00 0 0 0
134 22 3 -1.3800000000000001e-01 4.6441702766642905e+00 2.5398557288668555e+00 2.0653421376692907e-01 2 0 1
330 64 7 -8.1999999999999995e-01 2.6874118324037823e+00 7.1099196877101178e+00 3.0895963777437343e+00 0 0 2
249 37 7 -8.1999999999999995e-01 5.1962244905146422e+00 2.5993082161131875e+00 3.6020056585714979e+00 0 -4 2
313 58 8 4.0999999999999998e-01 2.6078997348893620e+00 5.8992184696251160e+00 8.3728392001382144e+00 -3 -3 1
331 64 8 4.0999999999999998e-01 3.1650051076073753e+00 7.9069373429153567e+00 2.6638336925890416e+00 0 0 2
226 29 8 4.0999999999999998e-01 1.0432484860560136e+00 5.8380640876298697e+00 5.7832897714000253e-01 2 1 3
323 61 8 4.0999999999999998e-01 5.1774671771286442e+00 5.4141407259570293e+00 6.3538608176997258e+00 -2 2 5
204 27 5 9.1100000000000003e-01 2.1413480543505847e+00 3.3058076875905473e-01 5.9363758859151208e+00 0 0 1
339 67 7 -8.1999999999999995e-01 3.3002708341551101e+00 7.3345757614037925e+00 5.6296628262303186e+00 -1 -2 -2
14 14 1 8.0000000000000004e-01 5.5642667193387991e+00 7.9732289475665352e+00 5.0469858741507920e+00 -1 2 -2
255 39 7 -8.1999999999999995e-01 9.2794762204974346e-02 6.7191200327031249e+00 5.5795568744867667e+00 0 0 0
206 27 3 -1.3800000000000001e-01 3.6100308620085819e+00 1.6256504641205554e+00 7.6724220927395885e+00 0 0 1
332 64 8 4.0999999999999998e-01 1.7741067227337879e+00 7.0772141641842534e+00 2.6539594417806467e+00 0 0 2
251 37 8 4.0999999999999998e-01 5.2694479715920650e+00 2.6271927929959427e+00 2.5654362572373790e+00 0 -4 2
262 41 8 4.0999999999999998e-01 4.7262632834085547e+00 6.2382269505037824e+00 2.7405206327073981e+00 2 0 1
340 67 8 4.0999999999999998e-01 2.7770814202421579e+00 8.0862024930633520e+00 6.1443737321305942e+00 -1 -2 -2
341 67 8 4.0999999999999998e-01 2.8274817561209744e+00 7.2587331364673320e+00 4.6811366411465327e+00 -1 -2 -2
261 41 7 -8.1999999999999995e-01 5.5343657415012153e+00 5.6339810156955243e+00 2.6952615384892575e+00 2 0 1
269 43 8 4.0999999999999998e-01 4.5146546173861797e+00 6.3613468975212299e+00 8.0892358491695653e+00 0 0 -3
320 60 8 4.0999999999999998e-01 2.3200805282890258e-02 1.6852040173525102e+00 3.6836049053616988e+00 3 -3 -3
131 22 3 -1.3800000000000001e-01 4.3206924113841669e+00 4.5860702085925764e+00 1.5290024718112250e-02 2 0 1
308 56 8 4.0999999999999998e-01 8.4450056018464430e+00 8.3207079707516396e+00 5.3991187732956103e+00 -2 3 1
67 18 2 -4.6100000000000002e-01 8.0701655581294993e+00 4.2167927951285993e+00 7.4554341362974066e+00 -1 -1 -1
69 18 5 9.1100000000000003e-01 9.0106888776722780e+00 5.1182657172617674e+00 8.0802942984759110e+00 -1 -1 -1
322 61 8 4.0999999999999998e-01 6.7371705118700591e+00 4.9425669876950131e+00 6.0041901464737224e+00 -2 2 5
90 20 2 -4.6100000000000002e-01 9.8672149152359552e+00 2.0548475289838839e+00 7.6279338250196660e-01 1 0 0
263 41 8 4.0999999999999998e-01 6.2012005484799246e+00 6.0450698299934773e+00 2.0143103418820187e+00 2 0 1
94 20 2 -4.6100000000000002e-01 7.4032151621367337e+00 1.6760089748195988e+00 5.5982009720490622e-01 1 0 0
306 56 7 -8.1999999999999995e-01 7.6325595292905657e+00 7.8065021440960916e+00 5.0905556886388563e+00 -2 3 1
9 9 1 8.0000000000000004e-01 6.3992192390688452e+00 4.1980832868131825e+00 3.8433004106385225e+00 1 0 1
321 61 7 -8.1999999999999995e-01 5.9078596770179663e+00 5.4380250863497031e+00 5.6141496368953838e+00 -2 2 5
93 20 5 9.1100000000000003e-01 8.4842174595905924e+00 2.6066840203018211e+00 6.7338443933470338e-01 1 0 0
103 20 4 3.1900000000000001e-01 9.9519352834049553e+00 2.4097859974798888e+00 4.1718252573680514e+00 1 0 0
99 20 5 9.1100000000000003e-01 9.3512771723645152e+00 3.8534995662379194e+00 3.2613529360382296e+00 1 0 0
101 20 3 -1.3800000000000001e-01 1.0469550961746410e+01 1.4504490901255014e+00 3.3198863863599932e+00 1 0 0
102 20 3 -1.3800000000000001e-01 8.9364888933423270e+00 1.7793171166711359e+00 4.7257063954145870e+00 1 0 0
70 18 2 -4.6100000000000002e-01 9.7702619044306989e+00 6.0885610695714565e+00 7.2694650067712052e+00 -1 -1 -1
100 20 2 -4.6100000000000002e-01 8.6942101362126767e+00 4.8774150454636604e+00 4.0394715965166652e+00 1 0 0
97 20 2 -4.6100000000000002e-01 1.0385443501768698e+01 4.2267906403690043e+00 2.3589783094193417e+00 1 0 0
104 20 3 -1.3800000000000001e-01 1.0857311627907782e+01 2.7542110265879893e+00 5.0966049068017325e+00 1 0 0
96 20 6 -5.8799999999999997e-01 7.9717363108004387e+00 3.2842204179954417e+00 2.2230533454939856e+00 1 0 0
240 34 7 -8.1999999999999995e-01 6.1478759579106717e+00 2.9720287616025381e-02 4.4464258375881345e+00 1 3 0
72 18 3 -1.3800000000000001e-01 1.0876111235253848e+01 3.2331364729402026e+00 7.9657245716486242e+00 -1 -1 -1
307 56 8 4.0999999999999998e-01 7.8870885706112412e+00 6.8369559468131955e+00 5.1997131615789822e+00 -2 3 1
311 57 8 4.0999999999999998e-01 7.3792870611029988e+00 5.6850696649059479e-02 6.2722540953910091e+00 -1 -9 -2
8 8 1 8.0000000000000004e-01 1.6738116863594517e+01 7.2667187869588501e+00 7.6082420165959759e+00 -2 0 -1
162 24 3 -1.3800000000000001e-01 1.3668568271925489e+01 1.2401362307472636e+00 4.7503705863432613e+00 0 1 1
159 24 5 9.1100000000000003e-01 1.3519944128539620e+01 6.4321104705556786e-01 2.2304678519556878e+00 0 1 1
227 29 8 4.0999999999999998e-01 1.6625415041103405e+01 5.5834780940976980e+00 1.4715548679919241e+00 1 1 3
257 39 8 4.0999999999999998e-01 1.6306379435741182e+01 6.2724933152190774e+00 4.9938762086451982e+00 -1 0 0
50 17 3 -1.3800000000000001e-01 1.1575509191925567e+01 7.0029983765675627e+00 4.0583012113258619e+00 1 0 2
157 24 2 -4.6100000000000002e-01 1.4745311722359995e+01 4.8129125128757416e-01 1.4039314610137876e+00 0 1 1
51 17 6 -5.8799999999999997e-01 1.4910503352567233e+01 6.1841256892164687e+00 1.6292361853682953e+00 1 0 2
16 15 3 -1.3800000000000001e-01 1.5546921419024065e+01 1.9389986396790506e+00 7.9148484207092755e+00 -2 0 -1
47 17 4 3.1900000000000001e-01 1.2439230186630319e+01 7.3027412707084967e+00 3.0535151612580509e+00 1 0 2
6 6 1 8.0000000000000004e-01 1.1967742907141282e+01 3.8091191963764892e+00 1.0444621631372852e+00 -5 0 0
163 24 4 3.1900000000000001e-01 1.3646170069335222e+01 1.0576245206009303e-01 4.0021417340147547e+00 0 1 1
48 17 5 9.1100000000000003e-01 1.3758974679603250e+01 6.0263004828964171e+00 2.8745066498361092e+00 1 0 2
160 24 2 -4.6100000000000002e-01 1.2692922983183767e+01 1.8827912907425857e+00 2.1442929243245081e+00 0 1 1
49 17 2 -4.6100000000000002e-01 1.4767413103662886e+01 5.9613966484055592e+00 3.9240172639400503e+00 1 0 2
318 60 7 -8.1999999999999995e-01 1.6487024463318541e+01 2.4667909845153604e+00 3.1871005580400058e+00 2 -3 -3
45 17 2 -4.6100000000000002e-01 1.3200652497708564e+01 4.7021379486040020e+00 2.6941412077759579e+00 1 0 2
53 17 3 -1.3800000000000001e-01 1.1712590525253962e+01 7.4721465139670231e+00 1.9094106491497189e+00 1 0 2
319 60 8 4.0999999999999998e-01 1.5704465581113126e+01 3.0190880490049219e+00 3.4960121930968162e+00 2 -3 -3
46 17 3 -1.3800000000000001e-01 1.2957701973554949e+01 8.4332998911778745e+00 3.3258794252971517e+00 1 0 2
55 17 2 -4.6100000000000002e-01 1.3101091236147843e+01 5.3769706198713001e+00 5.1711678489516258e-02 1 0 2
54 17 5 9.1100000000000003e-01 1.4474387643805304e+01 5.7398240331945498e+00 6.8039762172489304e-03 1 0 2
129 22 5 9.1100000000000003e-01 2.4859430199388539e+00 3.1096915712550843e+00 1.5754678498068543e+01 2 0 0
126 22 6 -5.8799999999999997e-01 1.7745586778872595e+00 4.6079025055260532e+00 1.5158572240593356e+01 2 0 0
130 22 2 -4.6100000000000002e-01 2.5878514568386208e+00 2.0679964865408307e+00 1.4723030164932810e+01 2 0 0
125 22 3 -1.3800000000000001e-01 2.8900964471880743e+00 5.3701303970896319e+00 1.2213257125513570e+01 2 0 0
121 22 3 -1.3800000000000001e-01 2.5792714283879996e+00 3.2532481398306099e+00 1.2246193378006030e+01 2 0 0
122 22 4 3.1900000000000001e-01 1.9125753043697509e+00 4.4200129475767067e+00 1.2247421344003468e+01 2 0 0
123 22 5 9.1100000000000003e-01 8.7560538185993797e-01 4.6935309424196499e+00 1.3634537808133127e+01 2 0 0
137 23 4 3.1900000000000001e-01 4.7097619593103861e+00 7.6151222821811464e+00 1.5118657721699842e+01 -1 0 -2
124 22 2 -4.6100000000000002e-01 6.1219872558818000e-01 6.1774749821056441e+00 1.3415479651102491e+01 2 0 0
128 22 3 -1.3800000000000001e-01 1.3226174568984703e+00 4.6209368703320699e+00 1.0996161770332424e+01 2 0 0
335 65 8 4.0999999999999998e-01 5.0204278910148972e+00 7.7293633170925808e+00 1.0116155630617307e+01 2 -1 1
333 65 7 -8.1999999999999995e-01 5.1485040798937334e+00 7.6395031283136143e+00 9.1196184539253373e+00 2 -1 1
132 22 3 -1.3800000000000001e-01 5.0553831908746778e+00 3.3872780918817704e+00 1.5178258801612234e+01 2 0 0
133 22 4 3.1900000000000001e-01 4.1984294123612038e+00 3.4260552460230036e+00 1.6220471899715488e+01 2 0 0
285 49 7 -8.1999999999999995e-01 5.1975151848369459e+00 2.0092052694369564e+00 1.1717359097312427e+01 1 0 -9
287 49 8 4.0999999999999998e-01 4.2177821187064888e+00 1.8927253886599182e+00 1.1910415141381302e+01 1 0 -9
314 58 8 4.0999999999999998e-01 1.2492317136315934e+00 5.0921870050119198e+00 8.9916553838557896e+00 -3 -3 1
138 23 5 9.1100000000000003e-01 4.0595364684206823e+00 7.8380308108719960e+00 1.6832279328389706e+01 -1 0 -2
140 23 3 -1.3800000000000001e-01 3.7075999387290004e+00 7.1306851924666761e+00 1.4353453078412095e+01 -1 0 -2
247 36 8 4.0999999999999998e-01 1.3284087990071818e+00 7.5876114839021396e+00 9.6108952580032962e+00 1 -3 1
277 46 8 4.0999999999999998e-01 1.0356509161346359e+00 7.9231677126187581e+00 1.2658843305767940e+01 1 -3 -4
127 22 2 -4.6100000000000002e-01 1.7282893725907986e+00 2.5762826226835291e+00 1.6856033802282877e+01 2 0 0
297 53 7 -8.1999999999999995e-01 4.0679966818861202e-01 6.5843057804858063e-01 1.2830889590391791e+01 -4 1 -4
139 23 2 -4.6100000000000002e-01 2.7340280942336133e+00 7.2772618820695492e+00 1.6854315781993314e+01 -1 0 -2
299 53 8 4.0999999999999998e-01 6.2375124536337978e-03 1.5850519612369163e-01 1.2108953538045682e+01 -4 1 -4
298 53 8 4.0999999999999998e-01 7.7160804481894746e-02 1.5797581185639777e+00 1.2658200653866233e+01 -4 1 -4
312 58 7 -8.1999999999999995e-01 1.6157790803613474e+00 6.0165629096312800e+00 8.6239717009147885e+00 -3 -3 1
143 23 3 -1.3800000000000001e-01 5.8220552730557893e+00 6.8417229335488416e+00 1.5115387585187076e+01 -1 0 -2
334 65 8 4.0999999999999998e-01 6.1813201724897135e+00 7.5563739932504195e+00 9.1247131576003788e+00 2 -1 1
304 55 8 4.0999999999999998e-01 6.0924745066033816e+00 2.5325681847702306e+00 1.0466706533751978e+01 -3 -1 -2
286 49 8 4.0999999999999998e-01 5.8881035042738228e+00 1.4718366172663109e+00 1.2248477293663791e+01 1 0 -9
98 20 3 -1.3800000000000001e-01 9.4851334441837558e+00 4.7029653741920994e+00 1.6487656758934168e+01 1 0 -1
91 20 3 -1.3800000000000001e-01 7.2657590509934078e+00 4.7454465107653778e+00 1.6704198955131172e+01 1 0 -1
73 18 4 3.1900000000000001e-01 1.0301617119451375e+01 4.0899711532660712e+00 8.8276030146211184e+00 -1 -1 -1
10 10 1 8.0000000000000004e-01 7.6941259971106444e+00 8.5365848924145904e-01 8.6874066644025447e+00 1 1 -3
303 55 7 -8.1999999999999995e-01 6.8027790502284615e+00 2.4887464217216659e+00 9.7133880775172443e+00 -3 -1 -2
61 18 3 -1.3800000000000001e-01 8.7522667140391572e+00 5.7105615130217933e+00 1.2326748367786436e+01 -1 -1 -1
60 18 2 -4.6100000000000002e-01 1.0096548275053424e+01 7.4986653183579985e+00 1.0025695546595330e+01 -1 -1 -1
62 18 4 3.1900000000000001e-01 8.2898944383781590e+00 6.8866256716762209e+00 1.1952440262159024e+01 -1 -1 -1
65 18 3 -1.3800000000000001e-01 6.9385481454831348e+00 6.8185631393439392e+00 1.2094110584922253e+01 -1 -1 -1
63 18 5 9.1100000000000003e-01 8.6783789448484185e+00 7.2489222328517222e+00 1.0128463302131619e+01 -1 -1 -1
95 20 3 -1.3800000000000001e-01 8.2805887724461833e+00 3.4884583870584360e+00 1.5179340876487503e+01 1 0 -1
66 18 6 -5.8799999999999997e-01 8.0553154231526012e+00 5.8362959019945935e+00 9.2816743027708810e+00 -1 -1 -1
68 18 3 -1.3800000000000001e-01 8.6674983633572182e+00 7.7766117166930337e+00 1.2865280792074614e+01 -1 -1 -1
64 18 2 -4.6100000000000002e-01 7.6460391088421682e+00 8.2079854643315553e+00 9.5958704488447086e+00 -1 -1 -1
305 55 8 4.0999999999999998e-01 7.0671689226143268e+00 3.4962583159122609e+00 9.5619005748420598e+00 -3 -1 -2
36 16 6 -5.8799999999999997e-01 1.0593506738111344e+01 1.6322610325092275e+00 1.4743007283810662e+01 -1 -1 -2
315 59 7 -8.1999999999999995e-01 9.7967282429594853e+00 4.6527458251044834e-01 8.9999185824214472e+00 -1 -5 2
44 16 3 -1.3800000000000001e-01 8.0548144447952321e+00 8.1906658151758260e-01 1.3339870847813591e+01 -1 -1 -2
74 18 3 -1.3800000000000001e-01 9.8904150889801894e+00 3.3091123682540715e+00 9.9191812828501895e+00 -1 -1 -1
316 59 8 4.0999999999999998e-01 1.0459654683058456e+01 1.2413289905807667e+00 9.1706533902832383e+00 -1 -5 2
92 20 4 3.1900000000000001e-01 8.3827095118487058e+00 3.9312720699628700e+00 1.6414356343629301e+01 1 0 -1
120 22 2 -4.6100000000000002e-01 1.6795855946218676e+01 3.6452710493408089e+00 1.3661151074069171e+01 1 0 0
20 15 3 -1.3800000000000001e-01 1.5372419188628175e+01 2.9918760110272431e+00 9.8545933812681259e+00 -2 0 -1
56 17 3 -1.3800000000000001e-01 1.4840035973253570e+01 7.1832634693028359e+00 1.4569950432612069e+01 1 0 1
52 17 2 -4.6100000000000002e-01 1.5416157579525290e+01 4.6493484775981671e+00 1.6655668768303734e+01 1 0 1
71 18 3 -1.3800000000000001e-01 1.1274993845708414e+01 4.9346913268324553e+00 9.2152289315326694e+00 -1 -1 -1
38 16 3 -1.3800000000000001e-01 1.1472830839792838e+01 3.3125779417768193e+00 1.2318252237339069e+01 -1 -1 -2
235 32 8 4.0999999999999998e-01 1.5733351827468626e+01 6.5489893302319624e+00 9.7147757006875146e+00 0 1 1
31 16 3 -1.3800000000000001e-01 1.3201922095211110e+01 4.1843326197023432e+00 1.3183009659720250e+01 -1 -1 -2
18 15 5 9.1100000000000003e-01 1.4703910169901395e+01 5.5054983544534219e-01 1.0052358057644945e+01 -2 0 -1
19 15 2 -4.6100000000000002e-01 1.4801956674056088e+01 8.2336252821700939e-01 1.1518556674752245e+01 -2 0 -1
119 21 3 -1.3800000000000001e-01 1.2562644756311398e+01 7.7935895071150307e+00 1.1075946880892966e+01 -2 -1 -1
23 15 3 -1.3800000000000001e-01 1.3578309849265787e+01 2.5589180197266392e+00 8.6320451458563578e+00 -2 0 -1
7 7 1 8.0000000000000004e-01 1.4632387843007256e+01 3.3107617356269853e-01 1.5080127996479488e+01 -4 0 -1
289 50 8 4.0999999999999998e-01 1.5669038362932836e+01 1.3968840294366565e+00 1.6890097477403508e+01 2 0 -3
32 16 4 3.1900000000000001e-01 1.1943759163880433e+01 3.7163917865419416e+00 1.3513518268422740e+01 -1 -1 -2
33 16 5 9.1100000000000003e-01 1.2154220174629007e+01 2.3650128742359278e+00 1.4735148073585805e+01 -1 -1 -2
35 16 3 -1.3800000000000001e-01 1.1273873797494181e+01 4.7581273807114233e+00 1.4046074905426662e+01 -1 -1 -2
17 15 4 3.1900000000000001e-01 1.4758181069161335e+01 2.0553477754538521e+00 9.0654095559301133e+00 -2 0 -1
288 50 7 -8.1999999999999995e-01 1.5819684647959377e+01 1.6130413769778258e+00 1.5920100793944535e+01 2 0 -3
34 16 2 -4.6100000000000002e-01 1.3058778032172333e+01 1.2947008793664196e+00 1.4339672936658987e+01 -1 -1 -2
290 50 8 4.0999999999999998e-01 1.5991093163207712e+01 2.6300533128954062e+00 1.5847776755110408e+01 2 0 -3
58 17 4 3.1900000000000001e-01 1.4762983051491030e+01 7.2766409299740822e+00 1.5916936256280449e+01 1 0 1
57 17 3 -1.3800000000000001e-01 1.5918134014849532e+01 7.8295426261742538e+00 1.6079764688297011e+01 1 0 1
30 16 2 -4.6100000000000002e-01 1.2301179185658208e+01 3.0240215137643789e+00 1.6070670657958548e+01 -1 -1 -2
236 32 8 4.0999999999999998e-01 1.4683081550411465e+01 5.5533801251465151e+00 8.8870523366224496e+00 0 1 1
234 32 7 -8.1999999999999995e-01 1.5459574977750218e+01 6.2234696024394101e+00 8.8439484247905167e+00 0 1 1
59 17 3 -1.3800000000000001e-01 1.3829167439807296e+01 8.2469145047183332e+00 1.6183535766532316e+01 1 0 1
183 26 5 9.1100000000000003e-01 3.9802207354168639e+00 1.2385089517577946e+01 5.3862889174461230e+00 2 0 0
186 26 6 -5.8799999999999997e-01 3.2018517143803797e+00 1.0807281636589186e+01 5.5502881232646804e+00 2 0 0
182 26 4 3.1900000000000001e-01 4.8489716770597404e+00 1.2699720879468675e+01 3.8781801704080761e+00 2 0 0
185 26 3 -1.3800000000000001e-01 4.0122050234049684e+00 1.2957766055916155e+01 2.8515555250818960e+00 2 0 0
241 34 8 4.0999999999999998e-01 5.3874020189359655e+00 1.6776997692091744e+01 5.1545464600929778e+00 1 2 0
148 23 4 3.1900000000000001e-01 1.1525103692523362e+00 1.0742239804439532e+01 2.6058386880604589e-01 -1 0 -1
184 26 2 -4.6100000000000002e-01 4.9723904188138324e+00 1.2152187984581920e+01 6.4615189867179019e+00 2 0 0
203 27 3 -1.3800000000000001e-01 1.4556610620601267e+00 1.4828970985326997e+01 3.9164312165348054e+00 0 -1 1
189 26 5 9.1100000000000003e-01 1.5126737486986330e+00 1.0682730214008297e+01 6.1325595392651095e+00 2 0 0
180 26 2 -4.6100000000000002e-01 2.9611120289866619e+00 1.3381272231341461e+01 5.7579554222142484e+00 2 0 0
187 26 2 -4.6100000000000002e-01 1.5519894493923276e+00 9.2815890383820534e+00 6.5918178764418274e+00 2 0 0
190 26 2 -4.6100000000000002e-01 1.3681360137570193e+00 1.1892854961202001e+01 7.0679003071977062e+00 2 0 0
149 23 3 -1.3800000000000001e-01 1.3380515496798906e+00 1.1757633288406566e+01 1.1076368695976828e+00 -1 0 -1
146 23 3 -1.3800000000000001e-01 6.6755313633791158e-01 9.7627424078599088e+00 9.8342773233095016e-01 -1 0 -1
181 26 3 -1.3800000000000001e-01 5.4961229674895407e+00 1.3804243472101861e+01 3.9887428158664697e+00 2 0 0
205 27 2 -4.6100000000000002e-01 2.0926224464504037e+00 1.5958900508247138e+01 6.7166358949797296e+00 0 -1 1
1 1 1 8.0000000000000004e-01 1.6762376122241183e+00 1.4033832174634316e+01 7.1649576043137344e+00 -1 -1 0
328 63 8 4.0999999999999998e-01 3.6917408794584921e+00 9.5023248084347642e+00 3.8055989383969742e+00 -2 -3 -2
266 42 8 4.0999999999999998e-01 4.3493552968840152e+00 1.4559037326470591e+01 1.1683536754680359e+00 1 1 -1
194 26 3 -1.3800000000000001e-01 5.1565790104428544e-01 1.2158462720743790e+01 4.2839610111360535e+00 2 0 0
329 63 8 4.0999999999999998e-01 4.8545555903341073e+00 9.3102137755263232e+00 2.5779149192593298e+00 -2 -3 -2
196 27 3 -1.3800000000000001e-01 1.5305494713931598e+00 1.4841350708149612e+01 1.7568632633078729e+00 0 -1 1
265 42 8 4.0999999999999998e-01 5.3833973995247213e+00 1.4865139383817745e+01 3.2167828747083557e-02 1 1 -1
197 27 4 3.1900000000000001e-01 1.4834559908233167e+00 1.5668419245483838e+01 2.8467538361296523e+00 0 -1 1
243 35 7 -8.1999999999999995e-01 5.3978403212719419e+00 9.2496179259588658e+00 6.7299773569382175e+00 -3 1 1
245 35 8 4.0999999999999998e-01 5.1160133847708096e+00 8.9472189263267765e+00 7.6618338672812065e+00 -3 1 1
264 42 7 -8.1999999999999995e-01 4.6239915144785098e+00 1.4243007211933527e+01 2.6990497399415442e-01 1 1 -1
193 26 4 3.1900000000000001e-01 3.8336935605738237e-01 1.0965469422305249e+01 4.7247661609037985e+00 2 0 0
192 26 3 -1.3800000000000001e-01 6.8242906003016257e-01 1.0118393223807882e+01 3.7362580640850522e+00 2 0 0
199 27 2 -4.6100000000000002e-01 4.1283218051723996e+00 1.6007007048036289e+01 2.4095074759092552e+00 0 -1 1
141 23 6 -5.8799999999999997e-01 3.5562196962750079e+00 9.4083476236863213e+00 4.6173605881281199e-01 -1 0 -1
200 27 3 -1.3800000000000001e-01 2.9981063886432335e-01 1.6392089595614230e+01 2.6628906076427739e+00 0 -1 1
198 27 5 9.1100000000000003e-01 2.9535074832992745e+00 1.6739528594223646e+01 2.9644271369291890e+00 0 -1 1
327 63 7 -8.1999999999999995e-01 4.6311079496795937e+00 9.1297965232057354e+00 3.5427356518903741e+00 -2 -3 -2
244 35 8 4.0999999999999998e-01 4.8007727126336057e+00 9.9810122939529240e+00 6.4635027806436085e+00 -3 1 1
11 11 1 8.0000000000000004e-01 5.5679346611293585e+00 1.2041292113142516e+01 8.4238093830313492e+00 0 -1 -1
188 26 3 -1.3800000000000001e-01 5.7794056850489373e+00 1.1749477226694193e+01 3.5360743684294151e+00 2 0 0
12 12 1 8.0000000000000004e-01 9.9777862165188136e+00 1.4752913096534956e+01 3.4890001558624495e-01 0 -2 0
309 57 7 -8.1999999999999995e-01 6.8761534487711904e+00 1.6835520011011823e+01 7.1508602357625497e+00 -1 -10 -2
324 62 7 -8.1999999999999995e-01 7.3661851099951203e+00 1.0926565532719717e+01 8.0328727561294802e+00 -3 -4 -1
166 25 3 -1.3800000000000001e-01 9.9227963292541830e+00 1.0106293555100198e+01 1.9782156723543671e+00 -2 -1 0
295 52 8 4.0999999999999998e-01 7.4314272088130613e+00 1.5433110595481228e+01 1.2191084887480061e+00 -5 0 -1
242 34 8 4.0999999999999998e-01 5.8968166880602331e+00 1.6251679320147868e+01 3.7130311289471902e+00 1 2 0
238 33 8 4.0999999999999998e-01 9.6450732373979946e+00 1.6810148289524516e+01 1.2024286901269932e+00 1 1 -1
170 25 3 -1.3800000000000001e-01 7.9593452633860799e+00 9.3755242271760313e+00 1.2794841889746955e+00 -2 -1 0
336 66 7 -8.1999999999999995e-01 1.0179153829425843e+01 9.5793049113746225e+00 6.2485207904900060e+00 -2 0 -2
221 28 3 -1.3800000000000001e-01 1.1000616457325410e+01 1.3956723565651865e+01 5.0882455284141423e+00 -2 1 0
165 25 2 -4.6100000000000002e-01 8.6591325459921347e+00 1.3181935800742373e+01 2.1046053280135499e+00 -2 -1 0
167 25 4 3.1900000000000001e-01 8.6066547480797357e+00 1.0369882338731999e+01 1.9259728472998281e+00 -2 -1 0
173 25 3 -1.3800000000000001e-01 8.2147261158796407e+00 1.0397975893548702e+01 3.2188658973985920e+00 -2 -1 0
219 28 5 9.1100000000000003e-01 9.9581527382178479e+00 1.4031587826925652e+01 7.5039699422347912e+00 -2 1 0
217 28 2 -4.6100000000000002e-01 1.0948460673037648e+01 1.4616264135041444e+01 8.4211131583769667e+00 -2 1 0
222 28 3 -1.3800000000000001e-01 9.8304252291493857e+00 1.5668728225395586e+01 5.6017312913417534e+00 -2 1 0
223 28 4 3.1900000000000001e-01 9.9144903455044631e+00 1.4339737785666086e+01 5.7197212770710744e+00 -2 1 0
224 28 3 -1.3800000000000001e-01 8.8869899395285206e+00 1.3800403805239666e+01 5.0646969459522175e+00 -2 1 0
216 28 6 -5.8799999999999997e-01 8.4494831580466769e+00 1.4692008841079076e+01 8.0818452529288702e+00 -2 1 0
337 66 8 4.0999999999999998e-01 9.9595307094516983e+00 1.0571510853028299e+01 6.4675759765160263e+00 -2 0 -2
220 28 2 -4.6100000000000002e-01 9.7483519853055736e+00 1.2589103709739495e+01 7.6216891895664682e+00 -2 1 0
168 25 5 9.1100000000000003e-01 8.1901105599717283e+00 1.2068636843043004e+01 1.2706018173770919e+00 -2 -1 0
237 33 7 -8.1999999999999995e-01 9.1404187257956178e+00 1.6117392149831581e+01 1.7751645515076493e+00 1 1 -1
325 62 8 4.0999999999999998e-01 7.5224812233374783e+00 1.0284955119006359e+01 7.2790690330801917e+00 -3 -4 -1
310 57 8 4.0999999999999998e-01 7.1940304727957471e+00 1.5901311042745458e+01 7.4999256141964272e+00 -1 -10 -2
239 33 8 4.0999999999999998e-01 9.1964873366345472e+00 1.6449743330387452e+01 2.7080002857711758e+00 1 1 -1
294 52 7 -8.1999999999999995e-01 7.0217877897920813e+00 1.5478345980853971e+01 2.7884183093638798e-01 -5 0 -1
169 25 2 -4.6100000000000002e-01 6.8521201187630902e+00 1.2132272360129232e+01 6.7942568071013609e-01 -2 -1 0
338 66 8 4.0999999999999998e-01 1.0928860165607682e+01 9.2042089188762954e+00 6.8502207853857007e+00 -2 0 -2
296 52 8 4.0999999999999998e-01 7.0843461345935399e+00 1.6523472498878689e+01 6.3837497221868489e-02 -5 0 -1
109 21 2 -4.6100000000000002e-01 1.5681665451487168e+01 9.0373542371475093e+00 7.2931960974755166e+00 -2 -1 -1
105 21 2 -4.6100000000000002e-01 1.5419967804692378e+01 1.1239518370542269e+01 8.4171538829091759e+00 -2 -1 -1
110 21 3 -1.3800000000000001e-01 1.2503021339403423e+01 1.1104115732769680e+01 8.0740673014311497e+00 -2 -1 -1
107 21 4 3.1900000000000001e-01 1.3180073288928238e+01 1.0093616706946710e+01 7.5072048052669498e+00 -2 -1 -1
29 15 3 -1.3800000000000001e-01 1.3831084357525743e+01 1.6077216281302071e+01 7.2011895090438527e+00 -2 -1 -1
155 24 3 -1.3800000000000001e-01 1.4245471394138278e+01 1.4113392921831050e+01 2.4522558040492544e+00 0 0 1
151 24 3 -1.3800000000000001e-01 1.4218405167672790e+01 1.2863988612451069e+01 6.9817671044351204e-01 0 0 1
153 24 5 9.1100000000000003e-01 1.3059395971456123e+01 1.5260465957974365e+01 2.4223747577370280e-01 0 0 1
108 21 5 9.1100000000000003e-01 1.4887219214338998e+01 9.8955306482426408e+00 8.1134919193744892e+00 -2 -1 -1
156 24 6 -5.8799999999999997e-01 1.2397739962818768e+01 1.6488291199455748e+01 1.3503478033554435e+00 0 0 1
113 21 3 -1.3800000000000001e-01 1.2413926002946607e+01 8.9658393702530823e+00 7.7761160052196869e+00 -2 -1 -1
28 15 4 3.1900000000000001e-01 1.4389241195989182e+01 1.4881793091717741e+01 7.4751534648027000e+00 -2 -1 -1
27 15 3 -1.3800000000000001e-01 1.5129712716252413e+01 1.4483820843631962e+01 6.4775320695306329e+00 -2 -1 -1
158 24 3 -1.3800000000000001e-01 1.5509053012271494e+01 1.4689832429285463e+01 8.1315343529297091e-01 0 0 1
164 24 3 -1.3800000000000001e-01 1.4708788334346828e+01 1.6274267057987274e+01 4.2420746153163202e+00 0 0 1
191 26 3 -1.3800000000000001e-01 1.5973966218563847e+01 1.0828613750337343e+01 5.0221719139894523e+00 1 0 0
106 21 3 -1.3800000000000001e-01 1.3083805023650767e+01 1.0178450502619919e+01 6.1619058497989974e+00 -2 -1 -1
152 24 4 3.1900000000000001e-01 1.4325493568646159e+01 1.4188466302078572e+01 1.1163059966501363e+00 0 0 1
26 15 3 -1.3800000000000001e-01 1.3382943701988395e+01 1.4054743988302411e+01 7.8117574853902392e+00 -2 -1 -1
161 24 3 -1.3800000000000001e-01 1.2586567230283594e+01 1.6339901835375006e+01 4.3628661318854540e+00 0 0 1
292 51 8 4.0999999999999998e-01 3.0666467540726670e+00 1.5202450935494550e+01 1.6423873993925632e+01 -1 1 -2
81 19 6 -5.8799999999999997e-01 4.3063141745892848e+00 1.2576910481773954e+01 1.0188580987710719e+01 -1 -1 -2
84 19 5 9.1100000000000003e-01 3.8821137698761241e+00 1.0919276207383515e+01 1.0401187860477039e+01 -1 -1 -2
78 19 5 9.1100000000000003e-01 3.0910065820912291e+00 1.3807533937413664e+01 1.0432434138585016e+01 -1 -1 -2
79 19 2 -4.6100000000000002e-01 2.3658075559139711e+00 1.3502427187997327e+01 1.1680373367491496e+01 -1 -1 -2
88 19 4 3.1900000000000001e-01 4.8941041843803061e+00 1.0188092907950949e+01 1.1657941524291578e+01 -1 -1 -2
82 19 2 -4.6100000000000002e-01 2.4525654376099868e+00 1.0785835937212831e+01 1.0525376339333715e+01 -1 -1 -2
87 19 3 -1.3800000000000001e-01 4.5348378597747558e+00 8.8543934187650954e+00 1.1758419931536613e+01 -1 -1 -2
145 23 2 -4.6100000000000002e-01 2.3315901648767907e+00 9.5155756665134028e+00 1.5006641200945607e+01 -1 0 -2
291 51 7 -8.1999999999999995e-01 2.6305430123897913e+00 1.5647105421658832e+01 1.5574435148235692e+01 -1 1 -2
89 19 3 -1.3800000000000001e-01 4.6953531101398820e+00 1.0716522861764121e+01 1.2872820709255114e+01 -1 -1 -2
77 19 4 3.1900000000000001e-01 4.0276376644724694e+00 1.5346399506296830e+01 1.0774237220219742e+01 -1 -1 -2
75 19 2 -4.6100000000000002e-01 2.5361626904963588e+00 1.3875263237255469e+01 9.0955043987684689e+00 -1 -1 -2
144 23 5 9.1100000000000003e-01 2.5717607630241983e+00 1.0252131118186352e+01 1.6180257245070603e+01 -1 0 -2
231 31 7 -8.1999999999999995e-01 2.0286247556343251e+00 1.3253625127945792e+01 1.4537503626514251e+01 -1 4 2
252 38 7 -8.1999999999999995e-01 4.7702965708994087e+00 1.3412666116260015e+01 1.3785697525832072e+01 2 -3 -2
274 45 8 4.0999999999999998e-01 1.8937665802961709e-01 1.2768308280971503e+01 1.0226753767595163e+01 -1 1 -1
233 31 8 4.0999999999999998e-01 1.4462518796090575e+00 1.2889364616733095e+01 1.3810389017728546e+01 -1 4 2