variable        infile index data.mol
variable        mytemp index 373

# set up simulation
#read_restart    ${NAME}.restart.*

# the following information is saved to restart files
units           real
atom_style      full
boundary        p p p
pair_style      lj/cut/coul/long 7
kspace_style    pppm 0.0001
pair_modify     tail yes
pair_modify     mix arithmetic
special_bonds   amber

bond_style      harmonic
angle_style     harmonic
dihedral_style  charmm
#improper_style  cvff

read_data       ${infile}
read_data       data.mol
  orthogonal box = (0 0 0) to (16.9073 16.9207 16.9298)
  1 by 2 by 2 MPI processor grid
  reading atoms ...
  341 atoms
  reading velocities ...
  341 velocities
  scanning bonds ...
  4 = max bonds/atom
  scanning angles ...
  6 = max angles/atom
  scanning dihedrals ...
  12 = max dihedrals/atom
  reading bonds ...
  274 bonds
  reading angles ...
  389 angles
  reading dihedrals ...
  420 dihedrals
  4 = max # of 1-2 neighbors
  6 = max # of 1-3 neighbors
  12 = max # of 1-4 neighbors
  14 = max # of special neighbors
  special bonds CPU = 0.000397414 secs
  read_data CPU = 0.00970052 secs

#replicate       3 4 4

neighbor        2.0 bin
neigh_modify    delay 0 every 1 check yes page 1000000 one 20000
timestep        1.0
#velocity        all create ${mytemp} 314159265 mom yes rot yes dist gaussian

## end information that is saved to restart files

## create velocity profile
#minimize       1e-4 1e-6 10000 10000
#velocity        all create  ${mytemp} 314159265 units box
velocity        all zero linear units box
dump            DUMP all custom 1000 ${NAME}.lammpstrj id type x y z mol
dump            DUMP all custom 1000 mol.lammpstrj id type x y z mol
thermo_style    custom step vol temp press ke pe etotal enthalpy evdwl ecoul epair ebond eangle edihed eimp emol elong etail lx ly lz xy xz yz pxy pxz pyz pxx pyy pzz
thermo          1000
#
## thermostat and integrator

#fix             NPT all npt temp ${mytemp} ${mytemp} 100.0 iso 1.0 1.0 100.0
fix             NVT all nvt temp ${mytemp} ${mytemp} 100.0
fix             NVT all nvt temp 373 ${mytemp} 100.0
fix             NVT all nvt temp 373 373 100.0

restart         50000 restart.${NAME}.1 restart.${NAME}.2
restart         50000 restart.mol.1 restart.${NAME}.2
restart         50000 restart.mol.1 restart.mol.2
run             10000000
PPPM initialization ...
  using 12-bit tables for long-range coulomb (src/kspace.cpp:332)
  G vector (1/distance) = 0.371916
  grid = 12 12 12
  stencil order = 5
  estimated absolute RMS force accuracy = 0.0291692
  estimated relative force accuracy = 8.78421e-05
  using double precision KISS FFT
  3d grid and FFT values/proc = 3211 432
Neighbor list info ...
  update every 1 steps, delay 0 steps, check yes
  max neighbors/atom: 20000, page size: 1000000
  master list distance cutoff = 9
  ghost atom cutoff = 9
  binsize = 4.5, bins = 4 4 4
  1 neighbor lists, perpetual/occasional/extra = 1 0 0
  (1) pair lj/cut/coul/long, perpetual
      attributes: half, newton on
      pair build: half/bin/newton
      stencil: half/bin/3d/newton
      bin: standard
Per MPI rank memory allocation (min/avg/max) = 17.93 | 17.94 | 17.94 Mbytes
Step Volume Temp Press KinEng PotEng TotEng Enthalpy E_vdwl E_coul E_pair E_bond E_angle E_dihed E_impro E_mol E_long E_tail Lx Ly Lz Xy Xz Yz Pxy Pxz Pyz Pxx Pyy Pzz 
       0    4843.3339    380.34174    1985.7523      385.467   -620.19223   -234.72522   -94.461497   -56.092547    4905.9936   -1557.3747    110.55346    198.04077    628.58829            0    937.18252   -6407.2758   -45.460554      16.9073      16.9207      16.9298            0            0            0    7838.3719    435.80127    -1283.461    5862.8398   -1734.6448    1829.0619 
    1000    4843.3339    367.00572    52.814528    371.95127   -643.97747   -272.02619   -268.29564   -64.682313    4900.3319   -1569.5598    112.37444    193.22362    619.98425            0    925.58231   -6405.2094   -45.460554      16.9073      16.9207      16.9298            0            0            0   -935.17303    144.24029   -2946.0637    -2393.094    4661.5124   -2109.9747 
    2000    4843.3339    372.35961    4382.9556    377.37731   -632.30026   -254.92295    54.667371   -53.364038    4906.3647   -1553.1366    114.57867    181.83453    624.42313            0    920.83634   -6406.1372   -45.460554      16.9073      16.9207      16.9298            0            0            0   -2282.5261    48.434171     3337.838    4946.8523    7631.1482    570.86626 
    3000    4843.3339    394.96807    3871.5783    400.29043     -608.129   -207.83856    65.630592   -55.093233    4919.5289    -1544.885    133.32212    185.89084    617.54308            0    936.75604   -6409.3207   -45.460554      16.9073      16.9207      16.9298            0            0            0   -1732.8093   -1219.2659   -102.22235    2733.8302    2979.7938     5901.111 
    4000    4843.3339    386.81824   -1744.3447    392.03078   -630.08332   -238.05254   -361.26443   -84.397604    4942.1315   -1547.8475    106.72097    189.07358    621.96966            0    917.76421   -6405.5814   -45.460554      16.9073      16.9207      16.9298            0            0            0    -4097.785   -1017.4273   -1325.6962    205.94695   -4220.5812   -1218.3997 
    5000    4843.3339     374.5169    441.22894    379.56368   -624.96605   -245.40237   -214.23614   -64.830546     4909.802   -1559.8241    117.19899    193.36592    624.29314            0    934.85806   -6404.7956   -45.460554      16.9073      16.9207      16.9298            0            0            0   -2031.0728   -3376.1539    1212.9608   -20.277086   -1441.0584    2785.0223 
    6000    4843.3339    402.28732   -2866.2529    407.70831   -639.08849   -231.38018   -433.83812   -84.539845    4944.8557   -1548.8555    112.57232    182.70586    614.48887            0    909.76704   -6409.1714   -45.460554      16.9073      16.9207      16.9298            0            0            0    3700.9168   -132.11736   -2667.4354   -2767.8481   -5098.8356   -732.07507 
    7000    4843.3339    388.99036   -4430.8315    394.23216   -629.18843   -234.95627    -547.9283   -91.933949    4958.8464   -1538.8273    109.56693    174.46917    625.60281            0    909.63891   -6405.7398   -45.460554      16.9073      16.9207      16.9298            0            0            0     1846.667   -600.48565   -11.209485   -7048.8244   -6528.4045    284.73454 
    8000    4843.3339    347.78589    2157.3662    352.47245   -621.81247   -269.34002   -116.95434   -59.364518    4915.3877   -1549.5631    108.80987    192.95816     625.9826            0    927.75063   -6405.5863   -45.460554      16.9073      16.9207      16.9298            0            0            0    896.63616    4812.5539   -2999.4787    4848.0955    3247.5136   -1623.5104 
    9000    4843.3339    380.12266    3639.8983    385.24497   -626.31948   -241.07451    16.029912   -63.273848    4920.0272   -1545.3021    99.849985    193.26484    625.86783            0    918.98266   -6402.0555   -45.460554      16.9073      16.9207      16.9298            0            0            0   -3446.0488    1790.3006   -262.88151    3053.1818    2988.2077    4878.3054 
   10000    4843.3339    371.23132    1220.0324    376.23382   -607.82828   -231.59446   -145.41741   -70.884288    4954.5877   -1523.3923    124.72032    172.13972    618.70401            0    915.56405   -6407.0958   -45.460554      16.9073      16.9207      16.9298            0            0            0    -584.4639   -1952.6828    2925.5413    4521.9169   -4125.6189    3263.7991 
   11000    4843.3339     355.9866   -4046.2618    360.78367   -621.36364   -260.57997    -546.3879   -74.866286    4913.1237   -1567.1226    130.95464    189.91531    624.88898            0    945.75893     -6405.38   -45.460554      16.9073      16.9207      16.9298            0            0            0    1618.5516    2882.8652    -547.6153   -601.40037   -11853.896    316.51111 
   12000    4843.3339    385.29776      3694.01    390.48981   -635.04068   -244.55088     16.37573   -60.009469    4893.7102    -1573.184    110.76923     204.1688    623.20524            0    938.14328   -6406.8847   -45.460554      16.9073      16.9207      16.9298            0            0            0    813.39577   -2381.7533    1378.4702     8580.462    2413.6278    87.940073 
   13000    4843.3339    372.29277   -751.08412    377.30957   -620.82659   -243.51701   -296.56988   -91.465177    4952.9354   -1541.3937    104.15846    188.55431    627.85435            0    920.56712    -6402.864   -45.460554      16.9073      16.9207      16.9298            0            0            0   -2105.7018    144.53267   -2513.1642   -1432.5893    4229.6473   -5050.3103 
   14000    4843.3339    374.21516   -3179.1382    379.25786   -645.96406    -266.7062   -491.26481   -72.131817    4885.7507   -1594.3711    125.35475    204.47347    618.57879            0    948.40701     -6407.99   -45.460554      16.9073      16.9207      16.9298            0            0            0    3091.6997    66.389869    396.12469   -4960.7242   -1364.3671   -3212.3233 
   15000    4843.3339    370.53958    1972.8879    375.53276   -638.88108   -263.34832   -123.99327   -44.325121    4872.9997   -1578.4476    126.23117     182.5341     630.8013            0    939.56657   -6407.1222   -45.460554      16.9073      16.9207      16.9298            0            0            0    -2856.264    2945.6403   -1199.9242     3262.686    3707.8238   -1051.8462 
   16000    4843.3339    383.40837   -364.40471    388.57496   -642.58306    -254.0081   -279.74785   -69.334461     4921.688   -1558.3514    107.91749    183.92179    623.92903            0    915.76831   -6410.7049   -45.460554      16.9073      16.9207      16.9298            0            0            0   -1513.2061    4504.8923    1012.5839    2152.8251   -799.54284   -2446.4964 
   17000    4843.3339    355.88685   -2349.2126    360.68258   -618.61172   -257.92915   -423.86591    -71.12094    4925.5615    -1554.848    114.96466    193.10969    628.16197            0    936.23632   -6409.2886   -45.460554      16.9073      16.9207      16.9298            0            0            0   -737.65215   -2264.1024   -1173.3566   -4135.3417   -3019.4394    107.14312 
   18000    4843.3339    359.08848   -3426.4025    363.92735   -640.47549   -276.54814   -518.57228   -76.418602    4913.9684   -1565.9007    111.71944    188.34367    625.36207            0    925.42517   -6403.4505   -45.460554      16.9073      16.9207      16.9298            0            0            0   -1287.7666   -875.88738    -2296.184   -6368.2254   -1625.5632   -2285.4188 
   19000    4843.3339     395.9195   -895.27219    401.25468   -641.89128   -240.63659   -303.87419   -75.777013    4933.0655   -1549.5283     117.2357    169.17898    621.22233            0    907.63701   -6406.8168   -45.460554      16.9073      16.9207      16.9298            0            0            0    515.72351   -1115.6134    5791.6641   -1846.3469    1508.9718   -2348.4415 
   20000    4843.3339    408.95865    191.39128    414.46954    -633.5695   -219.09997   -205.58103   -81.037021    4930.4266   -1561.2508    128.17618    184.26636    615.23877            0    927.68131   -6410.6403   -45.460554      16.9073      16.9207      16.9298            0            0            0    3042.5462   -59.625332     3245.622   -105.80662    179.43973    500.54073 
   21000    4843.3339    367.11849    1668.2805    372.06557   -621.45289   -249.38732   -131.54823   -65.062903    4919.3507   -1555.7435    117.98944     182.4083    633.89282            0    934.29056   -6410.0313   -45.460554      16.9073      16.9207      16.9298            0            0            0    5895.1814   -350.67806    80.544144   -143.46621    2475.8645    2672.4432 
   22000    4843.3339    365.66744    1158.1461    370.59496    -614.7248   -244.12984   -162.32412   -74.325004    4921.0447   -1560.3315    129.49634    185.65792    630.45245            0    945.60672   -6407.0512   -45.460554      16.9073      16.9207      16.9298            0            0            0    232.58117     2225.095   -535.65112    6074.8887   -241.48195   -2358.9685 
   23000    4843.3339    373.54903    339.91388    378.58276   -633.92782   -255.34506   -231.33522    -60.67874    4922.9292   -1543.1667    114.94094    178.02292    616.27502            0    909.23887   -6405.4171   -45.460554      16.9073      16.9207      16.9298            0            0            0   -1224.8723    614.25222    2150.0535     3606.372   -2555.3044   -31.325917 
   24000    4843.3339    393.95427    7453.9955    399.26297   -655.42201   -256.15905    270.35436   -25.413325    4874.1695   -1558.5064    121.04263    160.89627     621.1455            0     903.0844   -6407.2626   -45.460554      16.9073      16.9207      16.9298            0            0            0   -1911.7017   -5553.3663   -2834.2293    5327.3813    6826.1892    10208.416 
   25000    4843.3339    369.67208    2389.7875    374.65356   -641.02389   -266.37032   -97.567547   -77.973564     4947.021   -1540.4522    113.50407    167.58632     618.3379            0    899.42829   -6409.4996   -45.460554      16.9073      16.9207      16.9298            0            0            0    1282.3833   -1320.6339   -205.84865    6857.9141   -2475.9914    2787.4398 
   26000    4843.3339    366.39126   -6219.4129    371.32854   -630.47034    -259.1418   -698.45039   -70.192036    4882.0467   -1593.7905    122.81597    200.61198    639.89224            0     963.3202   -6405.6452   -45.460554      16.9073      16.9207      16.9298            0            0            0   -495.95154   -1469.5056   -1049.1993   -4668.6994    -6636.543   -7352.9964 
   27000    4843.3339    370.49984    422.95636    375.49248   -636.60567   -261.11319   -231.23765   -64.381944    4904.1687   -1568.6455    109.63597    197.04209    625.36181            0    932.03987   -6408.4323   -45.460554      16.9073      16.9207      16.9298            0            0            0    737.01472   -1219.8663   -706.17206   -3035.0788   -1188.1712    5492.1191 
   28000    4843.3339    379.60172   -1899.0254    384.71701   -657.86483   -273.14782   -407.28559   -64.722124    4906.2511   -1564.7003    114.61156    168.35927    623.86461            0    906.83544   -6406.2292   -45.460554      16.9073      16.9207      16.9298            0            0            0   -50.618549    306.24565   -1802.3486    2377.2943   -3670.4598   -4403.9107 
   29000    4843.3339    386.69893    -2947.561    391.90986   -628.65764   -236.74778   -444.94892   -74.274437     4904.917   -1576.7323    121.66607    205.22933    621.17925            0    948.07465   -6407.3749   -45.460554      16.9073      16.9207      16.9298            0            0            0   -2353.7626    94.522866   -1020.1545   -1188.5261   -2248.0794   -5406.0774 
   30000    4843.3339    364.16594   -1016.7095    369.07323   -631.62904   -262.55581   -334.37114   -72.816459    4922.8743    -1553.499    109.67257    190.13474    622.06265            0    921.86997   -6403.5569   -45.460554      16.9073      16.9207      16.9298            0            0            0   -1148.1652    2875.2533    460.47681   -5783.6774    2008.9883    724.56062 
   31000    4843.3339    345.61506    840.10938    350.27237   -614.35677    -264.0844   -204.74323   -96.829833    4955.9663   -1551.0814    120.58503    189.77599    626.36362            0    936.72464   -6410.2179   -45.460554      16.9073      16.9207      16.9298            0            0            0    -2136.759   -2938.9143   -2606.7598    594.87523    1284.0898    641.36309 
   32000    4843.3339    371.55282   -4364.6378    376.55965    -648.5024   -271.94275   -580.23919   -80.591897    4913.2743    -1576.335    121.05518    177.34828    629.42915            0     927.8326   -6409.0174   -45.460554      16.9073      16.9207      16.9298            0            0            0   -4411.1178   -592.11004    2150.1327   -2756.8062   -5120.0863   -5217.0209 
   33000    4843.3339     358.0871    4937.6248    362.91248   -601.62706   -238.71458    110.05483   -66.495976    4918.5958   -1559.6967     126.6643    202.24665    629.15871            0    958.06967   -6411.7965   -45.460554      16.9073      16.9207      16.9298            0            0            0   -1423.7727   -316.83459   -2806.1205    7841.8229    4505.9406    2465.1111 
   34000    4843.3339    359.31722     903.3851    364.15916   -580.12127   -215.96211   -152.15145   -85.113564    4963.3318   -1522.1279    122.90107    185.86385    633.24169            0    942.00661   -6400.3461   -45.460554      16.9073      16.9207      16.9298            0            0            0    6210.3683   -3279.2906   -2335.0443   -1715.1275    2671.5563    1753.7265 
   35000    4843.3339     358.5932     824.6908     363.4254   -627.48504   -264.05964   -205.80756   -81.721688    4931.1385   -1555.4104    118.39159    185.77087     623.7629            0    927.92536   -6404.8272   -45.460554      16.9073      16.9207      16.9298            0            0            0    4198.7649   -749.04438    3100.2283    3892.6116   -729.23558   -689.30361 
   36000    4843.3339     388.6642    1586.9731    393.90161   -650.08741    -256.1858   -144.08986    -72.06547    4928.7108   -1549.1321    104.50606    166.05854    628.48008            0    899.04468   -6405.7774   -45.460554      16.9073      16.9207      16.9298            0            0            0   -667.34129    2782.7779    688.60529    366.68162    3181.0527     1213.185 
   37000    4843.3339    398.45922     5444.442    403.82862   -631.81987   -227.99125    156.57723   -57.632767    4950.8833   -1521.2299    112.00195    159.20143    618.20667            0    889.41004   -6414.4805   -45.460554      16.9073      16.9207      16.9298            0            0            0   -1088.7701    1103.6412    888.82689    5492.4565    5208.7132    5632.1563 
   38000    4843.3339    377.58809    955.06341    382.67625   -587.14489   -204.46864   -137.00768   -71.510065     4925.005   -1555.0844    127.81157    214.86855    625.25944            0    967.93956   -6408.5793   -45.460554      16.9073      16.9207      16.9298            0            0            0    6934.0388   -1327.3014   -5374.5208    3125.7825    4808.8046   -5069.3969 
   39000    4843.3339    386.27309   -637.63894    391.47828   -627.36432   -235.88604    -280.9257   -77.773209    4943.2113   -1545.5359    112.75938    176.06189     629.3503            0    918.17158    -6410.974   -45.460554      16.9073      16.9207      16.9298            0            0            0    1096.9815     4119.155    966.38366    647.41149   -4885.1212    2324.7929 
   40000    4843.3339    370.96127    1138.6404    375.96013   -652.29449   -276.33436   -195.90643   -92.511844    4959.6931   -1544.2541    110.95181    163.80872    617.19907            0     891.9596   -6411.4353   -45.460554      16.9073      16.9207      16.9298            0            0            0   -725.58448    1352.3221    810.88526   -421.73127     5330.302   -1492.6494 
   41000    4843.3339    384.21894    2102.5484    389.39645   -611.54845     -222.152   -73.638369   -73.318046      4954.86   -1528.0076    113.56766    176.68937     626.2021            0    916.45913   -6409.5495   -45.460554      16.9073      16.9207      16.9298            0            0            0   -1887.4181   -1901.3645    3844.9856    2358.4932    4282.1516   -332.99948 
   42000    4843.3339    356.11008    2956.3103    360.90881   -610.24692   -249.33811   -40.518966   -75.435368    4931.6832   -1551.7658    126.23367     194.6768    620.60845            0    941.51892   -6408.0137   -45.460554      16.9073      16.9207      16.9298            0            0            0   -1860.5794    827.78071   -1471.6272    1291.8445    9740.2243    -2163.138 
   43000    4843.3339    352.37941   -5790.2683    357.12786   -645.99743   -288.86956    -697.8655    -82.09288     4934.761   -1557.2671    123.74539     172.3612    615.16312            0    911.26971   -6409.9353   -45.460554      16.9073      16.9207      16.9298            0            0            0    2943.7994   -4034.8997     1002.812   -7738.4189   -533.20391    -9099.182 
   44000    4843.3339    385.84868   -850.67886    391.04815   -632.26237   -241.21422   -301.30196    -63.08515    4924.6237   -1550.3723    119.09473    179.06992    619.94525            0    918.10989   -6411.9108   -45.460554      16.9073      16.9207      16.9298            0            0            0   -192.68972   -45.907072    4265.1789    156.53707   -1452.0536     -1256.52 
   45000    4843.3339    391.30846    776.60506     396.5815   -616.66506   -220.08356   -165.22802    -58.05711    4939.6658   -1530.9032    117.53884    176.59297    620.10634            0    914.23815   -6412.5119   -45.460554      16.9073      16.9207      16.9298            0            0            0    2272.0507   -1666.9999   -946.70018   -2954.3697    4883.4802    400.70467 
   46000    4843.3339     379.4769   -654.07153    384.59051   -643.15336   -258.56285   -304.76323    -72.94913     4906.211   -1581.2096    115.59369    211.16206    611.30044            0    938.05619   -6414.4714   -45.460554      16.9073      16.9207      16.9298            0            0            0   -599.59815     1371.055    2201.6854   -4099.8497    777.90704    1359.7281 
   47000    4843.3339    383.50088    4493.3314    388.66872   -608.72515   -220.05644    97.330287   -79.491896    4929.3425    -1557.779    123.81529    200.16536     625.0732            0    949.05386   -6407.6297   -45.460554      16.9073      16.9207      16.9298            0            0            0    3932.2725    719.66847    1253.6048    1510.2394    5325.9664    6643.7886 
   48000    4843.3339    370.82811     920.0158    375.82517   -652.68999   -276.86482   -211.87945   -98.641786      4950.72   -1557.0441    100.48465    188.05454    615.81488            0    904.35408   -6409.1223   -45.460554      16.9073      16.9207      16.9298            0            0            0   -1096.1023    -2191.786     2199.375   -990.62326   -3381.0068    7131.6774 
   49000    4843.3339    402.65398   -5822.0875    408.07991   -660.52689   -252.44698   -663.69046    -70.13412    4888.7783    -1592.253    120.50997    186.34032    624.87578            0    931.72607   -6410.8971   -45.460554      16.9073      16.9207      16.9298            0            0            0    1369.8856    676.66581   -1509.1733   -6088.0917   -4942.7909   -6435.3799 
   50000    4843.3339    347.69428    335.35356     352.3796   -650.51545   -298.13585   -274.44813   -51.873862    4892.3753   -1567.8439    108.89108    189.51469    618.92269            0    917.32846   -6408.3454   -45.460554      16.9073      16.9207      16.9298            0            0            0   -3600.1692   -398.06945   -477.72981   -3529.7056    6843.5789   -2307.8126 
   51000    4843.3339    380.07732   -2325.9738    385.19902   -616.32741   -231.12839   -395.42368    -91.33359    4937.2742   -1560.8275    126.73683    191.67543    626.08787            0    944.50013   -6406.7681   -45.460554      16.9073      16.9207      16.9298            0            0            0    3013.5215   -1652.1909   -407.24651   -906.19979   -3663.4642   -2408.2573 
   52000    4843.3339    393.70425    4065.0039    399.00957   -636.66031   -237.65074    49.481049   -69.339212    4924.4486   -1550.5885    108.67342    185.61807    619.63674            0    913.92822   -6405.6979   -45.460554      16.9073      16.9207      16.9298            0            0            0   -1507.3386    2740.9642   -797.74304    5818.1029    1467.9365    4908.9724 
   53000    4843.3339    360.93851    2334.8661    365.80231   -610.10842   -244.30611   -79.382713   -60.337647    4923.5869   -1542.3197    130.22445    181.56506    620.42173            0    932.21125    -6405.569   -45.460554      16.9073      16.9207      16.9298            0            0            0   -306.91135   0.52264863   -1544.9092    625.69095    2828.4555    3550.4518 
   54000    4843.3339    381.28343   -3307.0382    386.42138   -618.40702   -231.98564   -465.57847   -86.908494    4953.7666   -1536.1495    124.80526    172.36368    620.57351            0    917.74246   -6403.0075   -45.460554      16.9073      16.9207      16.9298            0            0            0   -597.10106    2762.9245   -4823.5269   -107.71371   -7602.8176   -2210.5833 
   55000    4843.3339     368.2413   -1790.2014     373.2035   -602.08991   -228.88641   -355.33739   -57.956089    4894.4509   -1569.5642    142.84693    206.44202    618.18534            0    967.47429    -6406.059   -45.460554      16.9073      16.9207      16.9298            0            0            0    574.30764    1447.1409    1451.7895   -3925.5582   -372.18646   -1072.8595 
   56000    4843.3339    395.31995    1936.4929    400.64705   -602.02054   -201.37349   -64.589204   -67.002856    4887.4686   -1586.3002    128.69051    230.76637     624.8228            0    984.27968    -6406.766   -45.460554      16.9073      16.9207      16.9298            0            0            0    594.31878   -1621.9673   -24.452804    49.953127    3360.4241    2399.1013 
   57000    4843.3339    384.75696    39.554793    389.94172   -651.29099   -261.34927   -258.55531   -66.389432    4879.5003   -1595.2035     122.0942    191.95304    629.86524            0    943.91248   -6408.3144   -45.460554      16.9073      16.9207      16.9298            0            0            0   -779.78449    51.198172   -479.89887    891.36153   -723.76161   -48.935543 
   58000    4843.3339    392.54221    2556.2964    397.83188    -668.6455   -270.81362   -90.249479   -87.639024    4915.7354   -1585.9976    119.94874     174.7334    622.66998            0    917.35212    -6414.094   -45.460554      16.9073      16.9207      16.9298            0            0            0   -230.09855   -638.95408    297.46337    2581.7435   -1040.2469    6127.3925 
   59000    4843.3339    396.53398   -1437.1846    401.87744   -634.99616   -233.11872   -334.63434   -57.951719    4900.6999   -1563.0641      117.769    192.59406    617.70486            0    928.06791   -6405.8123   -45.460554      16.9073      16.9207      16.9298            0            0            0   -4149.4773   -3804.7943    3304.5674    438.54024   -2865.3621   -1884.7321 
   60000    4843.3339    365.03257    1412.1191    369.95154   -611.71711   -241.76557   -142.02046   -84.459696    4948.9573   -1546.5129     116.4273    195.29151    623.07693            0    934.79575   -6411.0104   -45.460554      16.9073      16.9207      16.9298            0            0            0   -118.36444   -393.28434     1573.496   -1666.0979    2094.4874    3807.9677 
   61000    4843.3339    377.95056   -4623.1826     383.0436   -586.53227   -203.48867   -530.04744   -87.709935    4953.4707   -1543.2318    136.89271    196.20055    623.60631            0    956.69956   -6408.9926   -45.460554      16.9073      16.9207      16.9298            0            0            0    5546.1238    1770.7765    2655.3798    2029.9294   -10865.499   -5033.9782 
   62000    4843.3339    346.79434   -1783.0716    351.46754   -609.06753   -257.59999   -383.54736    -100.8811    4970.0235   -1540.1984    108.74067     199.1794    623.21077            0    931.13085   -6409.3407   -45.460554      16.9073      16.9207      16.9298            0            0            0   -2593.0433   -647.56878    1261.5127    -1520.582    4204.4542   -8033.0871 
   63000    4843.3339    365.54552    749.91459     370.4714   -670.55086   -300.07946    -247.1092   -80.689107    4892.0862   -1601.5932    108.48175     188.5726      633.988            0    931.04234   -6412.9903   -45.460554      16.9073      16.9207      16.9298            0            0            0   -823.64196   -1271.6565   -2360.4391    4257.1637   -8246.2252    6238.8053 
   64000    4843.3339    374.70866   -3881.3755    379.75802   -652.13967   -272.38165   -546.54283   -83.738262    4917.4262   -1580.2149    112.48638    187.50426    628.08456            0    928.07521   -6413.9028   -45.460554      16.9073      16.9207      16.9298            0            0            0   -1178.3056   -363.57739   -4836.6144   -82.951307   -6282.2071   -5278.9681 
   65000    4843.3339    352.20462    588.75642    356.95073   -609.40451   -252.45379   -210.86694   -70.817495    4935.8713   -1545.9295    112.24369    208.67628    615.60502            0    936.52499   -6410.9833   -45.460554      16.9073      16.9207      16.9298            0            0            0    2614.1796    1288.8434    6240.6695    4696.8697    -5195.525    2264.9245 
   66000    4843.3339    377.52615   -1957.6428    382.61348   -622.86286   -240.24938   -378.52759   -61.366216    4913.4314   -1553.0698    138.79331    169.28526     622.1284            0    930.20697    -6405.135   -45.460554      16.9073      16.9207      16.9298            0            0            0    3551.2555    1434.3022   -3969.7471    2192.4672   -4761.8036   -3303.5919 
   67000    4843.3339    362.23383    443.97363    367.11509   -621.58028    -254.4652   -223.10509   -66.337667    4929.2668   -1551.2467    115.65015    184.23242    629.78382            0    929.66639   -6414.1758   -45.460554      16.9073      16.9207      16.9298            0            0            0    2754.3682   -1175.1657    1684.1188    2848.1438    1291.2399   -2807.4629 
   68000    4843.3339    378.06653    1337.7051    383.16113   -619.98076   -236.81963   -142.33075   -79.944925    4965.3234   -1526.2571    109.11179    180.06024    617.10429            0    906.27632   -6411.6355   -45.460554      16.9073      16.9207      16.9298            0            0            0   -4933.4188   -3986.7762   -611.61932    1000.1752    2515.2318    497.70837 
   69000    4843.3339    386.22465    3620.7937    391.42919   -575.61126   -184.18207    71.572899   -57.578259    4962.1429   -1504.7464    113.42829    195.95368    619.75322            0    929.13519   -6409.3111   -45.460554      16.9073      16.9207      16.9298            0            0            0   -4777.1299   -3413.0519    1201.0364    3073.0929    5095.9798    2693.3083 
   70000    4843.3339    359.80946    1913.4244    364.65804    -617.9726   -253.31456   -118.15972   -62.768415    4920.5352   -1549.8114    121.61958    194.35869    615.86055            0    931.83882   -6407.5782   -45.460554      16.9073      16.9207      16.9298            0            0            0   -2053.1471   -1043.8608    4141.9149    1987.9927    661.02107    3091.2593 
   71000    4843.3339    356.90036   -631.25659    361.70974   -613.16368   -251.45395   -296.04279   -61.597021    4937.7341   -1527.9334    113.35384    178.98157    622.43432            0    914.76973   -6404.0705   -45.460554      16.9073      16.9207      16.9298            0            0            0    1260.1644    3178.1937   -566.48397    3221.7676   -4853.8849   -261.65248 
   72000    4843.3339    390.74629    6623.0292    396.01176   -613.87007   -217.85831    249.95974   -74.082761    4941.6517    -1538.277    113.41661     175.6146    635.37575            0    924.40697   -6405.8459   -45.460554      16.9073      16.9207      16.9298            0            0            0    4407.5284    1721.9137    1064.9372    6669.4779    7827.5856    5372.0242 
   73000    4843.3339     387.1824    2813.4217    392.39984   -606.25707   -213.85723   -15.131026   -65.682731    4927.6646    -1545.273    126.26246    189.74705    623.00639            0    939.01591   -6407.2548   -45.460554      16.9073      16.9207      16.9298            0            0            0   -3823.6163   -3564.6942   -4692.9333    4304.3966    4473.6323   -337.76389 
   74000    4843.3339    363.92261    3406.0965    368.82662    -627.5526   -258.72598   -18.136161   -44.066156    4870.3391   -1582.4463    129.10616      198.266    627.52151            0    954.89367   -6408.7192   -45.460554      16.9073      16.9207      16.9298            0            0            0    -1742.581    943.71711    3631.4373    7345.9251    4925.0521   -2052.6878 
   75000    4843.3339    372.57112    2066.4325    377.59167   -594.39002   -216.79835   -70.835776    -73.63529    4928.7898    -1550.753    118.92787    210.94443     626.4907            0      956.363   -6405.9076   -45.460554      16.9073      16.9207      16.9298            0            0            0    931.55913   -2831.2194   -32.380151    2312.9866    762.63114    3123.6796 
   76000    4843.3339    379.47897   -1346.9631    384.59261   -630.56609   -245.97348   -341.11629   -66.799707    4922.3539   -1557.8908    107.64585    191.22121    628.45769            0    927.32474    -6413.445   -45.460554      16.9073      16.9207      16.9298            0            0            0    1007.1606    3082.7957   -3227.2412    3049.6032   -5474.2997   -1616.1928 
   77000    4843.3339    381.80671    2328.4305    386.95172   -592.59937   -205.64765   -41.178827   -51.602227    4903.4282   -1560.4951    129.02764    214.49537     624.3727            0     967.8957   -6412.3211   -45.460554      16.9073      16.9207      16.9298            0            0            0    262.00551   -305.36917   -3674.9664    1148.2935    8373.9238   -2536.9256 
   78000    4843.3339    353.31926     567.7808    358.08038   -617.23966   -259.15928   -219.05405    -73.31424    4947.3697   -1536.0304    120.76301    173.39746    624.63023            0     918.7907   -6410.0859   -45.460554      16.9073      16.9207      16.9298            0            0            0   -640.17429    1755.2732    2282.0209   -2955.0966    4462.6545    195.78448 
   79000    4843.3339    393.23039    1649.7834    398.52933   -627.59757   -229.06824    -112.5357   -49.091351    4893.4898   -1564.7659    103.97307    196.60533    636.58989            0     937.1683   -6409.1643   -45.460554      16.9073      16.9207      16.9298            0            0            0    1099.8586     3009.717     2174.662   -704.91712    5328.5324    325.73484 
   80000    4843.3339    349.71768   -193.34958    354.43027   -661.62052   -307.19025   -320.84751   -44.066349    4892.5534   -1563.6347    100.83588    170.04926    631.12908            0    902.01421   -6412.1218   -45.460554      16.9073      16.9207      16.9298            0            0            0   -632.80431   -3387.4708    3989.9333    -1267.096   -537.30808    1224.3554 
   81000    4843.3339    355.31441   -2848.4972    360.10242   -616.04186   -255.93945   -457.14321   -106.56109    4966.1485   -1553.3631     113.5677    201.18272     622.5708            0    937.32122   -6412.9505   -45.460554      16.9073      16.9207      16.9298            0            0            0    1125.9542   -209.58757    3375.7836   -3249.8069   -3429.2249   -1866.4598 
   82000    4843.3339    369.86611   -654.50083    374.85021   -630.47622   -255.62601   -301.85671    -85.76078    4948.6204   -1549.3125    115.00484    183.65596    620.17549            0     918.8363   -6412.1722   -45.460554      16.9073      16.9207      16.9298            0            0            0    1677.0651   -4025.8774    4753.0722    856.56553   -3214.8359    394.76786 
   83000    4843.3339     365.0983    2005.3098    370.01815   -624.75642   -254.73827    -113.0931   -35.688189    4892.8937   -1552.0151    116.74074    186.30322    624.21473            0    927.25869   -6409.2207   -45.460554      16.9073      16.9207      16.9298            0            0            0   -3462.0348   -1128.3225   -485.85237    3951.2493   -1321.6439     3386.324 
   84000    4843.3339    388.90776    2726.5412    394.14845    -624.8006   -230.65215   -38.062751   -62.169748    4940.5637   -1534.0674    114.35826    167.90906     626.9995            0    909.26682   -6412.4614   -45.460554      16.9073      16.9207      16.9298            0            0            0    3667.4987   -57.098392     248.7127    2719.2606    2459.4601    3000.9031 
   85000    4843.3339    378.98137   -250.20833     384.0883   -629.82643   -245.73813   -263.41161   -53.036586     4910.928   -1553.1453    114.58416    179.73131    629.00341            0    923.31888   -6411.0367   -45.460554      16.9073      16.9207      16.9298            0            0            0   -428.66522   -4605.5184    4348.7357   -3633.0597   -360.82983    3243.2646 
   86000    4843.3339    386.12143   -6649.8158    391.32457   -627.09676   -235.77218    -705.4823   -99.529316      4957.55   -1550.1876    113.49134    181.50987    628.08959            0     923.0908   -6408.2082   -45.460554      16.9073      16.9207      16.9298            0            0            0    971.00267   -4.8318567   -4857.4612   -2665.0045   -7330.3241   -9954.1188 
   87000    4843.3339    388.65082   -677.81148    393.88805   -626.73062   -232.84257   -280.71982   -72.442164    4904.7093   -1570.4775    131.35729    188.27663    624.11299            0    943.74691   -6402.7447   -45.460554      16.9073      16.9207      16.9298            0            0            0   -366.86281   -1130.6334    2223.3862    332.83008   -1765.9962   -600.26828 
   88000    4843.3339    360.99322   -4128.3825    365.85776   -590.57681   -224.71906   -516.32759   -72.400536    4933.4816   -1547.9306     126.4333    208.07477    622.84567            0    957.35374   -6409.0116   -45.460554      16.9073      16.9207      16.9298            0            0            0   -1534.4617    3020.1113   -926.50783   -1800.7963   -5483.8805   -5100.4706 
   89000    4843.3339    395.56343   -1180.5586    400.89381   -642.47154   -241.57773   -324.96656   -58.000746    4903.8609   -1565.7445    114.25558     187.4387    621.57863            0    923.27292   -6411.6046   -45.460554      16.9073      16.9207      16.9298            0            0            0   -748.14028    1044.1416   -873.90911   -4731.1142    18.881415    1170.5569 
   90000    4843.3339    373.72059    3684.4912    378.75663   -620.16202   -241.40538    18.848866   -37.915308    4910.0505   -1540.4917    117.45413    184.69823    618.17731            0    920.32967   -6412.6269   -45.460554      16.9073      16.9207      16.9298            0            0            0   -684.91837    4105.8939    1835.8992    1276.0005     3501.617    6275.8561 
   91000    4843.3339    360.64666    112.88832    365.50653   -616.15601   -250.64948   -242.67561   -67.364378    4925.3342   -1549.1849    140.91958     170.9536    621.15569            0    933.02887   -6407.1547   -45.460554      16.9073      16.9207      16.9298            0            0            0    2765.4784    1661.0749    3549.7293   -1154.0222   -327.45336    1820.1405 
   92000    4843.3339    353.59807   -1360.9116    358.36296   -636.92306   -278.56011   -374.68817   -63.406492    4897.2698   -1573.1024    111.02073    203.38239    621.77619            0    936.17931   -6406.9657   -45.460554      16.9073      16.9207      16.9298            0            0            0   -2324.7451   -1060.6875   -3252.6774    3054.2975    -5258.067   -1878.9653 
   93000    4843.3339    370.04928    -2926.403    375.03585   -609.13108   -234.09523   -440.80187   -79.185385    4959.9084   -1522.9345    115.79811    175.73611     622.2692            0    913.80342   -6403.6575   -45.460554      16.9073      16.9207      16.9298            0            0            0   -3810.3544   -1303.3129   -1557.4414   -8506.1084       2099.5   -2372.6006 
   94000    4843.3339    384.84718    2286.5685    390.03316   -616.71511   -226.68195   -65.170053   -72.286876    4931.3565   -1543.0785    106.90903    194.10012    625.35425            0    926.36341   -6402.1481   -45.460554      16.9073      16.9207      16.9298            0            0            0   -739.98181    3030.9494    -164.1127    5703.0217    3350.4523   -2193.7685 
   95000    4843.3339     404.4896    753.33842    409.94027   -640.87798   -230.93771   -177.72561   -60.490025    4908.1036   -1557.9207    112.99219    181.05517    622.99538            0    917.04273   -6405.5343   -45.460554      16.9073      16.9207      16.9298            0            0            0    790.82702    2254.4312   -1163.0547   -1434.8024    3329.4538    365.36383 
   96000    4843.3339    373.20521    5615.6191    378.23431   -642.92913   -264.69482    131.96475   -70.598029    4899.2578   -1580.5662     105.8766    202.65878    629.10171            0    937.63708   -6409.2259   -45.460554      16.9073      16.9207      16.9298            0            0            0   -1436.0809    -1465.653    1506.5072    10960.557    1427.6863     4458.614 
   97000    4843.3339    384.45078     -1854.62    389.63142   -613.43949   -223.80807   -354.80926   -85.390286    4945.3859   -1547.4957    121.97865    183.04826    629.02934            0    934.05624   -6407.4913   -45.460554      16.9073      16.9207      16.9298            0            0            0    924.92921   -775.56498   -748.08039   -7581.0234   -1580.1235     3597.287 
   98000    4843.3339    359.83609    3252.9917    364.68504   -597.79707   -233.11203    -3.336779   -65.706792    4917.6407   -1555.7935    126.91856    200.41951    630.65833            0     957.9964   -6407.7274   -45.460554      16.9073      16.9207      16.9298            0            0            0   -1255.7674   -3643.4446    4842.1095    6847.1164    2399.7206    512.13819 
   99000    4843.3339    347.87303   -3849.4175    352.56076   -641.31802   -288.75726   -560.66109   -74.558421    4891.4663   -1594.0946    121.41158    205.92993    625.43511            0    952.77662   -6411.0025   -45.460554      16.9073      16.9207      16.9298            0            0            0    2475.4134    2107.6689    50.579265   -5297.0552   -3763.1395   -2488.0579 
  100000    4843.3339    369.13465    1826.7128    374.10889   -608.60334   -234.49444   -105.46448   -102.59778    4970.4174    -1543.403     117.1359    189.86452    627.79924            0    934.79966   -6411.2226   -45.460554      16.9073      16.9207      16.9298            0            0            0    2551.5745    167.09477    2475.8396     4635.367     3395.542   -2550.7704 
  101000    4843.3339    359.99075   -1449.5303    364.84178   -621.61999   -256.77821   -359.16586   -77.822044    4927.8559   -1552.9632    108.86499    192.53939    629.93879            0    931.34317    -6402.997   -45.460554      16.9073      16.9207      16.9298            0            0            0      2153.59   -4741.2334   -5550.6801    -982.4102   -1477.6404   -1888.5403 
  102000    4843.3339    366.18785   -1059.9254    371.12239   -630.87797   -259.75558   -334.62347   -97.435362     4952.035    -1553.356    103.99398    186.56274     631.9213            0    922.47802   -6407.9556   -45.460554      16.9073      16.9207      16.9298            0            0            0   -673.14178   -2706.5719    -714.4791   -2675.7009    3306.7833   -3810.8585 
  103000    4843.3339    364.00743    -1704.124    368.91258   -627.16667   -258.25409   -378.62499   -97.618143    4965.0005   -1537.4946    93.843125    191.80501    624.67975            0    910.32788   -6404.8769   -45.460554      16.9073      16.9207      16.9298            0            0            0    4034.2514    1666.9582   -3713.2875   -949.53628   -5071.9227    909.08684 
  104000    4843.3339    365.96501    -2168.939    370.89654   -605.81884    -234.9223   -388.12543   -96.573977     4949.413   -1550.1422    120.90711    199.72459    623.69169            0    944.32339   -6402.9812   -45.460554      16.9073      16.9207      16.9298            0            0            0    1378.2373   -1417.7487   -2698.4888   -1011.8846   -2081.4688   -3413.4635 
  105000    4843.3339    375.57795   -1910.5196    380.63902   -639.10611   -258.46709   -393.41675   -91.437749    4938.9823   -1560.6228     102.2973    184.87838    634.34104            0    921.51672   -6408.1674   -45.460554      16.9073      16.9207      16.9298            0            0            0    169.32951   -1383.6492    262.25136   -3190.6392   -1697.0516   -843.86794 
  106000    4843.3339    370.19114    -4893.869    375.17962   -612.48877   -237.30914   -582.98786   -68.156499    4916.4999   -1562.2032    130.25865    189.81395    629.64187            0    949.71447   -6410.5466   -45.460554      16.9073      16.9207      16.9298            0            0            0    1993.8089   -4180.0473   -2366.2845    2302.1497   -7521.0455   -9462.7111 
  107000    4843.3339    384.57276    3031.0783    389.75504   -635.32128   -245.56624   -31.465852   -93.986471    4944.7022   -1557.9244    110.15791    182.96022    629.48496            0    922.60309   -6408.6401   -45.460554      16.9073      16.9207      16.9298            0            0            0   -388.05245    3587.8107      906.211   -549.52101    5835.6696    3807.0862 
  108000    4843.3339    374.15622    684.50194    379.19813   -646.10125   -266.90312   -218.55328   -80.929059    4933.0129    -1562.597    109.20321    188.63196    618.66053            0     916.4957   -6414.6808   -45.460554      16.9073      16.9207      16.9298            0            0            0    292.98298    3633.0832    1106.1507    2621.7852   -223.00067   -345.27866 
  109000    4843.3339    387.62999    458.44875    392.85347   -629.81453   -236.96107   -204.57851   -69.873549    4939.3169   -1543.9185    121.77977    170.14143    622.18277            0    914.10397   -6413.3618   -45.460554      16.9073      16.9207      16.9298            0            0            0    1729.5051   -1032.1906   -3360.0104    4975.0921    206.68098   -3806.4268 
  110000    4843.3339    375.35875    1880.3488    380.41687   -601.22742   -220.81055   -87.992006   -62.947246    4938.4449   -1530.3461    118.42629    183.56061    627.13178            0    929.11868   -6405.8438   -45.460554      16.9073      16.9207      16.9298            0            0            0    2072.0124   -3404.4037    62.979595   -2223.5874    2828.2342    5036.3996 
  111000    4843.3339    371.48686    2536.7289     376.4928   -607.08203   -230.58923   -51.407243   -70.571842    4961.8798   -1521.0143    130.00074    155.31429    628.61719            0    913.93222   -6412.3222   -45.460554      16.9073      16.9207      16.9298            0            0            0   -1691.0939   -2385.8082   -1384.3261   -2959.3613    9526.1486    1043.3993 
  112000    4843.3339     356.1581   -4386.8924    360.95748   -627.44445   -266.48697   -576.35536   -78.095669    4931.6355   -1552.0478    118.31996    178.96577    627.31758            0    924.60331   -6405.5876   -45.460554      16.9073      16.9207      16.9298            0            0            0    -141.6672   -2971.8085    3139.2573   -1286.2943   -7780.3188   -4094.0641 
  113000    4843.3339    378.92857    1498.1168    384.03479    -635.0026    -250.9678   -145.14824   -75.521668    4921.7542   -1559.3493    117.50163    184.47402    622.37107            0    924.34672   -6405.5819   -45.460554      16.9073      16.9207      16.9298            0            0            0   -2631.1288    551.62153   -1801.6022   -4047.3493    7292.9788    1248.7209 
  114000    4843.3339    405.35894   -6258.4377    410.82132   -627.44389   -216.62256   -658.68767   -91.245144     4966.517   -1531.7203    120.22901    170.40775    613.63961            0    904.27638   -6406.9921   -45.460554      16.9073      16.9207      16.9298            0            0            0    2118.1516    842.96382    2464.9929   -5251.5176   -10396.391   -3127.4041 
  115000    4843.3339     384.0053   -4872.4419    389.17993   -593.01301   -203.83308   -547.99829   -98.955027    4939.0682   -1565.9901    155.66487     189.4238    627.88839            0    972.97706   -6406.1033   -45.460554      16.9073      16.9207      16.9298            0            0            0   -1897.3957    2147.7883    407.90465   -11830.838   -1180.5549    -1605.933 
  116000    4843.3339    376.26032   -309.31284    381.33059   -645.61234   -264.28175   -286.13008   -93.838041    4945.7343   -1558.5766    109.68609    176.04805    627.23014            0    912.96428   -6410.4728   -45.460554      16.9073      16.9207      16.9298            0            0            0    4126.8481    1393.0768   -1143.8542   -7611.6119    3832.9466    2850.7267 
  117000    4843.3339    383.14818   -2626.8727    388.31126   -624.36192   -236.05065   -421.59996   -78.305229    4934.5421   -1552.4519    123.33219    177.09376    627.66401            0    928.08996   -6408.6887   -45.460554      16.9073      16.9207      16.9298            0            0            0    2471.4874    329.56062    3698.3355   -7358.5432   -41.468967   -480.60593 
  118000    4843.3339    376.94133   -2724.3023    382.02077   -623.60444   -241.58367   -434.01492   -61.992182    4930.2222   -1538.3231    120.50835    174.67237    619.53789            0    914.71861   -6406.5531   -45.460554      16.9073      16.9207      16.9298            0            0            0   -3086.7093   -2163.1787    943.77355   -2110.8167   -5460.0474    -602.0429 
  119000    4843.3339    350.22349    3980.8668     354.9429   -649.89769   -294.95479   -13.766041   -35.076464    4892.7114   -1551.8892    101.76953    169.84818    630.37383            0    901.99154   -6409.5241   -45.460554      16.9073      16.9207      16.9298            0            0            0    4220.5224   -717.35359   -389.81784    6126.4237    5701.0177    115.15885 
  120000    4843.3339    385.74392    224.92058    390.94198   -635.23221   -244.29022   -228.40295   -26.245801     4873.586   -1561.9337    122.62056    176.23089       627.85            0    926.70145   -6409.2738   -45.460554      16.9073      16.9207      16.9298            0            0            0    2210.3126   -3796.1961    1886.0193   -2802.6456    1840.1789    1637.2284 
  121000    4843.3339    384.98137   -1634.3158    390.16916   -642.56224   -252.39308   -367.83307   -65.893256    4929.9655   -1551.0443    114.81494    170.59896    623.06815            0    908.48205   -6415.1165   -45.460554      16.9073      16.9207      16.9298            0            0            0   -1094.0477   -77.190518   -68.174197   -8148.1994    5354.7037   -2109.4518 
  122000    4843.3339    380.49658    3193.5683    385.62393   -626.51751   -240.89358   -15.315695   -54.679419    4903.4062   -1558.5072    106.18893    194.76293     631.0378            0    931.98966    -6407.234   -45.460554      16.9073      16.9207      16.9298            0            0            0    607.80783    4952.8917   -4809.5848    244.36531    5807.7834    3528.5563 
  123000    4843.3339    411.23332    2198.7775    416.77486    -652.9492   -236.17434   -80.863563   -45.356445    4874.3033   -1578.3848    119.18609    180.32341    625.92613            0    925.43563   -6407.3317   -45.460554      16.9073      16.9207      16.9298            0            0            0   -3604.1287    73.504142   -2782.5992   -2216.2344    5321.3584    3491.2085 
  124000    4843.3339    370.67198   -334.62111    375.66694   -639.13104    -263.4641   -287.10008   -88.857924    4929.0537    -1564.794    111.95329    182.62378    631.08588            0    925.66295   -6404.9898   -45.460554      16.9073      16.9207      16.9298            0            0            0    901.84448    2646.3872   -2251.4635   -5698.5882    1774.7432    2919.9816 
  125000    4843.3339    392.28134   -149.90165     397.5675   -621.08258   -223.51508   -234.10339   -59.499024    4909.9752   -1560.1406    123.81241    184.75598    630.48965            0    939.05803   -6410.6168   -45.460554      16.9073      16.9207      16.9298            0            0            0   -1772.8746    887.14382    2394.6523    2469.6571   -1169.1485   -1750.2136 
  126000    4843.3339    344.31595    2127.4316    348.95575   -614.25845    -265.3027   -115.03145   -71.198426    4924.3405   -1552.6496    120.65252      182.805    634.93368            0     938.3912   -6405.7917   -45.460554      16.9073      16.9207      16.9298            0            0            0     2316.335    -2091.754   -2589.2585    4014.1736    2168.4092    199.71197 
  127000    4843.3339    372.58112    1339.4458    377.60181      -606.38    -228.7782   -134.16636    -63.84204    4930.2682   -1544.0322    124.69094    188.19213    624.76915            0    937.65221   -6410.4584   -45.460554      16.9073      16.9207      16.9298            0            0            0   -2070.6621   -110.16519   -1835.5178    2108.0958   -820.77273    2731.0145 
  128000    4843.3339    372.70471   -990.37454    377.72706   -646.38157   -268.65452   -338.60968   -50.122727     4890.566   -1569.9668    121.24846    163.50915    638.82757            0    923.58519     -6410.41   -45.460554      16.9073      16.9207      16.9298            0            0            0    1691.2071   -3239.5327    3155.1637    956.55709   -3727.2392    -200.4415 
  129000    4843.3339    342.12543    3344.1122    346.73571   -618.05702   -271.32131   -35.109756   -49.892675    4922.6539   -1536.6143    106.28113    186.76479    625.51134            0    918.55726   -6409.3755   -45.460554      16.9073      16.9207      16.9298            0            0            0    1338.4848    309.95589    3668.9937    3739.2561    4316.0896     1976.991 
  130000    4843.3339    364.60221    4810.6502    369.51538   -629.82259   -260.30721    79.493339   -66.470741    4922.8399   -1556.5099    107.04165    196.59515     623.0505            0     926.6873   -6412.8791   -45.460554      16.9073      16.9207      16.9298            0            0            0    -1653.862   -300.79188    329.75817    2877.4249    7352.3453    4202.1803 
  131000    4843.3339     382.6118     -5292.42    387.76765    -596.1734   -208.40575   -582.23614   -80.921034    4916.8265   -1571.1923    134.27785    214.33696     626.4041            0    975.01891   -6407.0978   -45.460554      16.9073      16.9207      16.9298            0            0            0   -4178.8402   -955.22014   -885.90432   -4767.0046   -6180.2929   -4929.9624 
  132000    4843.3339    373.91968     21.35189    378.95841   -649.13259   -270.17418   -268.66599   -73.158887    4897.5939   -1584.2327     103.5115    202.47221    629.11638            0    935.10009   -6408.6677   -45.460554      16.9073      16.9207      16.9298            0            0            0   -1241.7489    2434.5057    1787.8096   -674.87428    6072.7327   -5333.8028 
  133000    4843.3339    362.86396   -825.57083     367.7537   -661.27411   -293.52041   -351.83465   -63.584133    4894.1253   -1579.1812    102.19164    188.91819    626.79727            0    917.90711   -6409.7224   -45.460554      16.9073      16.9207      16.9298            0            0            0    2582.5152   -1115.9862    3650.9771   -1276.8589   -434.07774   -765.77581 
  134000    4843.3339    373.49235    617.42308    378.52531   -619.89525   -241.36994   -197.75822   -56.534798    4888.0519   -1579.8123    129.24356    207.40843    623.26506            0    959.91705   -6411.3294   -45.460554      16.9073      16.9207      16.9298            0            0            0    1064.1271   -527.08717   -4237.6427    3428.1616   -1575.4786  -0.41373762 
  135000    4843.3339    367.70051     1369.947    372.65543   -629.28146   -256.62603   -159.85975   -85.975659    4945.5632   -1549.3457    107.62702    193.11092     619.3263            0    920.06425   -6408.9332   -45.460554      16.9073      16.9207      16.9298            0            0            0    -2618.955   -691.08756    1062.3107   -1217.8879    136.02459    5191.7043 
  136000    4843.3339    375.12282    4056.5321    380.17775   -623.95585   -243.77809    42.755284   -83.809715    4928.2298    -1565.474    106.83716    201.75893    632.92204            0    941.51813   -6409.8941   -45.460554      16.9073      16.9207      16.9298            0            0            0   -1874.3091    3226.5883   -4586.9669    4646.7961    4465.0488    3057.7514 
  137000    4843.3339     372.5008   -692.63797    377.52041   -637.89725   -260.37684   -309.30137   -86.307364    4922.8098   -1572.3853    104.17575    200.84986    629.46247            0    934.48808   -6408.8878   -45.460554      16.9073      16.9207      16.9298            0            0            0   -1244.5004    520.85646   -1356.5337   -4475.1286   -3919.5993    6316.8139 
  138000    4843.3339    393.25107   -3779.2404    398.55029   -662.24367   -263.69338   -530.64024   -77.810631    4917.6191   -1570.2364    106.93333    177.27838    623.78098            0     907.9927   -6410.0448   -45.460554      16.9073      16.9207      16.9298            0            0            0    1111.2271   -264.83651    754.24969    -4177.066   -2055.8316   -5104.8234 
  139000    4843.3339    401.28525   -2842.2135    406.69273   -635.12972   -228.43699    -429.1969   -73.569151    4901.6757   -1586.5715    123.16276    207.44264    620.83639            0    951.44179    -6414.678   -45.460554      16.9073      16.9207      16.9298            0            0            0   -2668.7824   -3928.4563    1132.5447   -2290.8771   -2991.5342   -3244.2292 
  140000    4843.3339    371.86078   -1047.9505    376.87175   -610.73392   -233.86217   -307.88421    -60.85821    4880.8242   -1587.3416    130.90164    215.33703    630.36897            0    976.60764   -6407.3075   -45.460554      16.9073      16.9207      16.9298            0            0            0   -1224.8327   -3849.9283    1121.2365      1146.46   -2436.4015   -1853.9099 
  141000    4843.3339    387.39536   -2206.1073    392.61567   -634.09769   -241.48201   -397.31052   -89.200873    4928.9715   -1568.6514    114.86252    194.71026    624.98094            0    934.55371    -6408.422   -45.460554      16.9073      16.9207      16.9298            0            0            0    2019.4212   -191.98138    4601.3622   -300.17984   -10384.161    4066.0192 
  142000    4843.3339    357.39684   -1277.2248    362.21291   -650.56108   -288.34817   -378.56501   -72.891221    4904.9259   -1576.9139    122.38471    172.03147    631.93661            0     926.3528   -6408.9486   -45.460554      16.9073      16.9207      16.9298            0            0            0   -1268.3959    2945.7962    4085.4989    -8608.162    4242.3017    534.18606 
  143000    4843.3339    399.69377   -2715.0401    405.07981   -615.55033   -210.47052   -402.24753   -79.083588    4916.4023   -1572.6633    126.81378    204.98594    625.31325            0    957.11297    -6409.982   -45.460554      16.9073      16.9207      16.9298            0            0            0    -1339.642    1616.1092    2051.6997    575.05785   -7107.8669   -1612.3113 
  144000    4843.3339    371.06852    39.347474    376.06882   -644.35147   -268.28265   -265.50333   -61.841841    4909.8389   -1562.8327    113.70525    187.34137    617.43462            0    918.48124   -6410.8297   -45.460554      16.9073      16.9207      16.9298            0            0            0   -5077.1038    2776.3582    -0.463216   -3266.0271    4336.6394   -952.56985 
  145000    4843.3339    372.72213    655.56902    377.74471   -623.62767   -245.88296    -199.5768   -69.549258    4907.5868    -1572.273    111.20841    219.58322     617.8537            0    948.64532   -6410.3105   -45.460554      16.9073      16.9207      16.9298            0            0            0   -1655.2408   -4251.9841    1639.3098   -2121.9395    4545.9124   -457.26582 
  146000    4843.3339    375.06523    732.74925    380.11939   -654.97916   -274.85978   -223.10199   -51.986827    4894.6884   -1562.5304    99.327775    183.68624    624.53719            0     907.5512   -6405.2319   -45.460554      16.9073      16.9207      16.9298            0            0            0    4647.0718    -696.5338   -3512.1529   -158.53153    4326.9911   -1970.2118 
  147000    4843.3339    371.37444    859.42761    376.37887   -635.89846   -259.51959   -198.81387   -74.919141    4911.2139   -1571.7582    100.36807    209.38361    626.10809            0    935.85976    -6408.053   -45.460554      16.9073      16.9207      16.9298            0            0            0    1846.7562     1072.275    3804.8283   -64.330329   -1874.7801    4517.3933 
  148000    4843.3339    380.10949   -3795.1903    385.23162   -646.12124   -260.88962    -528.9631    -103.0221    4951.8147   -1556.9341    110.36858    183.01328    617.43099            0    910.81286   -6405.7267   -45.460554      16.9073      16.9207      16.9298            0            0            0   -1137.9952   -1453.6779    2490.5549   -2791.3798    137.60715   -8731.7981 
  149000    4843.3339    367.94439    2028.5161     372.9026   -597.24931   -224.34671   -81.062364   -57.008472    4913.7819   -1551.8128    130.80375    193.45398    630.30575            0    954.56348   -6408.5863   -45.460554      16.9073      16.9207      16.9298            0            0            0   -536.25744   -967.54987    715.11763    6015.1025    299.45283   -229.00704 
  150000    4843.3339    361.27554   -86.826706    366.14388   -623.49436   -257.35047   -263.48348   -71.753984    4911.5437    -1570.609    108.01928    214.57826    624.51714            0    947.11468   -6410.3987   -45.460554      16.9073      16.9207      16.9298            0            0            0   -1721.2808   -791.34804    1073.4302   -968.32035   -396.34342    1104.1836 
  151000    4843.3339    395.03884    37.153681    400.36215   -628.80587   -228.44372   -225.81936   -58.682987    4880.4469   -1588.7372    128.75104    205.46282    625.71743            0    959.93129   -6410.5011   -45.460554      16.9073      16.9207      16.9298            0            0            0   -1806.6886    811.68615   -1053.1604   -2764.3461    258.14896    2617.6582 
  152000    4843.3339    395.03962    4040.3936    400.36294   -600.44177   -200.07883    85.314598   -79.902289    4948.5764   -1541.9533    126.31479    199.81438    615.38241            0    941.51158   -6410.6274   -45.460554      16.9073      16.9207      16.9298            0            0            0   -703.34322    1674.2572    2543.7478    2031.0049     7377.941    2712.2347 
  153000    4843.3339    354.41442    527.16941     359.1903   -649.13057   -289.94026   -252.70362    -45.31286    4883.1065    -1565.973    109.39695    185.04526    622.40021            0    916.84243   -6403.7666   -45.460554      16.9073      16.9207      16.9298            0            0            0   -411.33633   -1097.7595   -1764.1233    1411.8714   -5370.5878    5540.2246 
  154000    4843.3339    370.64901   -501.45168    375.64366   -638.66798   -263.02432   -298.44438   -58.402475    4890.8739   -1569.0326    135.68826    187.31089    607.36546            0    930.36461    -6401.504   -45.460554      16.9073      16.9207      16.9298            0            0            0    6887.7662   -714.38019    -1763.318   -1628.8374    433.36509    -308.8827 
  155000    4843.3339     370.6421   -1237.8628    375.63666   -656.27129   -280.63463   -368.07114   -78.242452    4884.2384   -1599.0369    104.43673    215.07401    623.25485            0    942.76559   -6405.0328   -45.460554      16.9073      16.9207      16.9298            0            0            0   -4419.4137     2218.054   -2439.9605   -1622.7037    1270.6999   -3361.5845 
  156000    4843.3339    353.34744     197.6285    358.10894   -650.31124    -292.2023    -278.2428   -73.846606     4896.337   -1589.0337     113.2506    202.55366    622.91819            0    938.72245   -6411.5241   -45.460554      16.9073      16.9207      16.9298            0            0            0   -1663.2382    2993.6307    -570.1236   -3789.7714     568.1633    3814.4936 
  157000    4843.3339    357.58865    621.43615    362.40731   -646.90336   -284.49605   -240.60087    -84.26726    4910.4309   -1584.4403    118.53731    197.39708    621.60258            0    937.53697    -6410.604   -45.460554      16.9073      16.9207      16.9298            0            0            0    5932.1238    1645.0728   -1309.4823   -86.845206     6018.561   -4067.4073 
  158000    4843.3339    377.79681   -2503.2373    382.88778   -603.02281   -220.13503   -396.95134   -95.217692    4953.4277   -1549.2206    130.90435    187.26963    628.02381            0     946.1978   -6407.4306   -45.460554      16.9073      16.9207      16.9298            0            0            0   -24.165066    4133.0509   -5728.4238   -180.41021   -5676.3176   -1652.9841 
  159000    4843.3339    383.30609    1397.8282     388.4713   -618.07066   -229.59937   -130.86369   -72.686805    4924.1404   -1560.1083    116.57756    213.73983    611.72025            0    942.03763   -6411.5619   -45.460554      16.9073      16.9207      16.9298            0            0            0    4183.6617   -439.54835   -2309.0067    2802.5543    2038.7181   -647.78777 
  160000    4843.3339    383.26108    2817.5953    388.42568   -653.06081   -264.63513   -65.614127   -95.416861    4942.6682    -1561.143     109.4203    176.72648    621.93535            0    908.08214   -6408.3943   -45.460554      16.9073      16.9207      16.9298            0            0            0   -3990.2508    1122.2749    1781.0814   -2091.7265     6332.585    4211.9274 
  161000    4843.3339    374.06709   -1138.3485     379.1078   -631.80053   -252.69273   -333.10004   -70.578187    4903.1587   -1575.3201    126.02665    194.46274    623.03019            0    943.51958   -6407.9006   -45.460554      16.9073      16.9207      16.9298            0            0            0   -2811.1104    530.00291    3086.0965   -3575.7684   -1376.3213    1537.0441 
  162000    4843.3339    372.20369    1586.1363    377.21929   -593.55133   -216.33205   -104.29522   -45.576906    4875.4463   -1569.7926    136.14417    212.82552     627.2716            0    976.24129    -6399.662   -45.460554      16.9073      16.9207      16.9298            0            0            0     1198.494    -423.2851    1535.2869    6950.2316   -4060.1352    1868.3125 
  163000    4843.3339    370.43416   -802.76267    375.42592   -624.12975   -248.70383   -305.40702   -53.350882    4889.5638   -1571.6179    123.25067    192.44392    631.79354            0    947.48813   -6407.8308   -45.460554      16.9073      16.9207      16.9298            0            0            0    1570.1143    -1364.971    2902.4602   -43.920919   -2702.1875    337.82038 
  164000    4843.3339    380.31242    1378.2217    385.43729    -614.4912   -229.05391   -131.70314     -73.3534    4937.8573   -1543.2023    113.44211    191.69017     623.5788            0    928.71109   -6407.7062   -45.460554      16.9073      16.9207      16.9298            0            0            0    3207.8393   -5227.1691   -1608.8605   -940.62171   -1021.0466    6096.3335 
  165000    4843.3339    339.27921    2497.2539    343.85114    -645.2485   -301.39737    -125.0037   -50.050172     4893.578   -1568.1482    109.35174    200.15258     613.3954            0    922.89972    -6411.676   -45.460554      16.9073      16.9207      16.9298            0            0            0   -7.8864044   -5563.8778     1661.755    4832.9217   -1413.0893    4071.9293 
  166000    4843.3339    398.84265   -306.34974    404.21722   -623.45515   -219.23793   -240.87696   -71.035957    4912.0583   -1567.4781    119.53576    197.27712    627.21006            0    944.02294   -6408.5004   -45.460554      16.9073      16.9207      16.9298            0            0            0   -2822.3283    2692.3561    344.25048   -4266.3637   -807.88376    4155.1983 
  167000    4843.3339      382.464    738.49345    387.61786   -627.59562   -239.97776   -187.81423    -73.54306     4915.237   -1566.7235    113.66945    204.52683    620.93158            0    939.12786   -6408.4174   -45.460554      16.9073      16.9207      16.9298            0            0            0    555.69575    1289.6598   -2322.9926   -634.60014   -695.13245    3545.2129 
  168000    4843.3339      391.107   -991.29956    396.37733   -634.44811   -238.07078   -308.09128   -84.544058    4939.3924   -1556.8753    96.968212    191.81146    633.64751            0    922.42718   -6411.7236   -45.460554      16.9073      16.9207      16.9298            0            0            0    33.906004    2879.0834   -2385.0896   -217.55843   -5768.8691    3012.5288 
  169000    4843.3339    369.56318   -3157.9945     374.5432   -626.58651   -252.04331   -475.10843   -54.670748    4923.3395   -1542.1904    121.72299    173.38461    620.49626            0    915.60385   -6410.8591   -45.460554      16.9073      16.9207      16.9298            0            0            0    1165.4625    3931.8173    1883.4953   -3881.7108   -7423.7842    1831.5114 
  170000    4843.3339    361.66275   -1788.7906     366.5363   -637.96553   -271.42923   -397.78056   -92.717246    4939.1977   -1563.4518    110.86311    189.98568    624.63743            0    925.48622   -6409.9322   -45.460554      16.9073      16.9207      16.9298            0            0            0   -118.21358   -3338.8568   -1161.3583   -6698.6064    1151.3182    180.91634 
  171000    4843.3339    376.13739    2341.7169      381.206   -638.42776   -257.22176   -91.814453   -74.788896    4904.6179   -1577.0851    111.17722    208.17697    619.30313            0    938.65732   -6406.9141   -45.460554      16.9073      16.9207      16.9298            0            0            0   -762.50223   -146.68792   -2708.6609    18.035591     6668.915    338.20025 
  172000    4843.3339    358.30616   -1919.9742    363.13449   -624.41079    -261.2763   -396.89379   -62.758164    4916.5884   -1555.2836    118.49749    184.12392    628.25142            0    930.87283   -6409.1139   -45.460554      16.9073      16.9207      16.9298            0            0            0   -3203.1906    1556.6538    324.33071   -1319.6985   -5133.3077    693.08372 
  173000    4843.3339    379.43337     3840.105     384.5464   -611.88323   -227.33683    43.909206    -66.97646    4916.8049   -1560.6285    112.77251     215.4598    620.51295            0    948.74526   -6410.4569   -45.460554      16.9073      16.9207      16.9298            0            0            0    2901.5675    870.79899   -1498.3096    7022.2511   -1908.3442    6406.4082 
  174000    4843.3339    336.93629   -1342.2638    341.47665   -601.70518   -260.22854   -355.03942   -87.840182    4946.7143   -1549.4177    124.27803    201.92788    621.50656            0    947.71248   -6408.2917   -45.460554      16.9073      16.9207      16.9298            0            0            0    335.15826    2184.2101    1611.8355   -2494.3512   -16.177095   -1516.2632 
  175000    4843.3339    380.67296    698.94967    385.80269   -639.77346   -253.97077   -204.60042   -94.130272    4956.8071   -1546.8551    101.51109    184.85675    620.71377            0    907.08161   -6409.5319   -45.460554      16.9073      16.9207      16.9298            0            0            0   -1241.9962   -2251.7206   -861.15353   -1751.7057   -3958.7904    7807.3451 
  176000    4843.3339    380.88287   -540.68179    386.01543   -592.36198   -206.34655   -244.53764   -94.782865    4968.2304   -1537.2722    119.55343    210.76961    614.58714            0    944.91018   -6410.7197   -45.460554      16.9073      16.9207      16.9298            0            0            0    -375.1359     936.8603    3378.0165   -5626.0887    912.71117    3091.3321 
  177000    4843.3339    374.63795    570.28992    379.68636    -624.4128   -244.72644   -204.44398   -59.100436    4906.1156   -1558.3573     127.6183     187.2123    619.11386            0    933.94446   -6405.3724   -45.460554      16.9073      16.9207      16.9298            0            0            0   -3908.7145   -5509.0491   -574.21895   -2751.8982    2715.0815    1747.6865 
  178000    4843.3339    382.56345    1064.4801    387.71865   -609.58237   -221.86372   -146.67411   -84.646642    4943.4897   -1547.8484    119.94259    194.54125    623.78221            0    938.26605   -6406.6915   -45.460554      16.9073      16.9207      16.9298            0            0            0   -2495.1924    382.19917    442.08756    1206.6327   -853.48449     2840.292 
  179000    4843.3339    355.51432   -1878.5674    360.30502   -622.88452   -262.57949   -395.27221   -68.196372     4935.092    -1543.154    116.38344    178.27005    625.61605            0    920.26953   -6410.0497   -45.460554      16.9073      16.9207      16.9298            0            0            0    319.91649    37.118387   -2090.4447    851.63742   -35.450669    -6451.889 
  180000    4843.3339    332.93207    257.74959    337.41847   -587.44748   -250.02902   -231.82286   -76.141091    4943.3716   -1537.7603    119.60907    199.89345    630.81027            0    950.31279   -6404.9908   -45.460554      16.9073      16.9207      16.9298            0            0            0   -1794.7439    376.57286   -3685.7711    1111.7202    1267.9818   -1606.4532 
  181000    4843.3339    383.59857    505.32107    388.76773   -641.89777   -253.13004   -217.43666    -72.06683    4951.0889   -1533.4509    110.25148    164.52502    616.77662            0    891.55312   -6412.4729   -45.460554      16.9073      16.9207      16.9298            0            0            0   -2054.1578   -3679.6718    1214.9096    4490.3826   -2996.7557    22.336331 
  182000    4843.3339    378.12287    1230.0975    383.21823   -631.41608   -248.19784   -161.30984    -110.0231    4964.1284   -1555.8889    110.22311    191.36039     622.8893            0    924.47281   -6409.9942   -45.460554      16.9073      16.9207      16.9298            0            0            0    1910.9623   -1369.0179     1163.916   -1674.0255    2394.5293    2969.7887 
  183000    4843.3339    353.31055     801.2333    358.07156   -657.83938   -299.76782   -243.17266   -95.346719    4974.5864   -1533.4161    90.312443    172.62888    612.63543            0    875.57676   -6412.6558   -45.460554      16.9073      16.9207      16.9298            0            0            0   -686.09162     1804.992    3178.2162    4240.4331   -186.27847   -1650.4547 
  184000    4843.3339    374.23414   -2018.3185     379.2771   -652.34566   -273.06856   -415.63261   -92.655544    4945.7307   -1553.5027    97.213609    175.26641    628.67703            0    901.15705   -6406.5779   -45.460554      16.9073      16.9207      16.9298            0            0            0   -2566.7819    1058.6055    4572.9767   -3180.6048    2867.8553   -5742.2062 
  185000    4843.3339    384.92871   -2843.9005    390.11578   -611.51048    -221.3947   -422.27378   -100.41261    4960.6621   -1545.8037    123.98015    185.38425    624.92879            0    934.29319   -6406.0531   -45.460554      16.9073      16.9207      16.9298            0            0            0   -4195.6799   -3490.9939   -1918.4229   -3268.8564   -119.64262   -5143.2025 
  186000    4843.3339    351.22145   -844.42915    355.95431   -632.66278   -276.70847   -336.35477   -57.777456    4916.9092   -1545.8142    113.89273    188.23875     611.0199            0    913.15138   -6404.9459   -45.460554      16.9073      16.9207      16.9298            0            0            0   -16.986178   -460.51572   -1482.4451    1828.7783   -1019.3299   -3342.7358 
  187000    4843.3339     363.4732    4669.7566    368.37116   -634.12724   -265.75608    64.092442   -65.521346    4930.0374   -1542.2946    111.59765    173.16278    623.40695            0    908.16737   -6406.8107   -45.460554      16.9073      16.9207      16.9298            0            0            0   -140.59549   -4765.9612   -709.77617    3798.0586    8311.2328    1899.9785 
  188000    4843.3339    383.66888    5043.1258    388.83898   -617.63722   -228.79824    127.42324   -70.844967    4941.8203   -1537.8645     111.8005      189.094    619.33281            0    920.22731   -6408.8398   -45.460554      16.9073      16.9207      16.9298            0            0            0   -124.93912   -1172.0789    29.966094    3262.5611    9516.3466    2350.4697 
  189000    4843.3339    410.08736    2217.4142    415.61346   -612.93957    -197.3261   -40.698926   -81.983954    4952.4029   -1537.2247    120.37231    181.22304    622.68977            0    924.28512   -6407.6436   -45.460554      16.9073      16.9207      16.9298            0            0            0    3904.5377   -848.77853   -4583.4801    355.91462    538.63837    5757.6896 
  190000    4843.3339    342.32301   -3817.3715    346.93596   -615.41902   -268.48307   -538.12332   -67.581871    4913.8931   -1560.7427    112.51586    210.83204    621.97582            0    945.32371   -6407.0539   -45.460554      16.9073      16.9207      16.9298            0            0            0    1623.6378   -579.64748    1741.3648   -3586.3121   -7891.4793     25.67689 
  191000    4843.3339    354.56812   -845.76845    359.34607   -616.72624   -257.38017   -317.12107    -92.68157     4946.004   -1555.7756    112.33175    206.08765    620.62995            0    939.04934    -6409.098   -45.460554      16.9073      16.9207      16.9298            0            0            0    935.31532    1076.9182   -3944.5166   -3328.0862   -1481.4514    2272.2322 
  192000    4843.3339    355.60709   -2875.1128    360.39904   -617.62859   -257.22955   -460.31331   -87.292968    4952.3443   -1543.3059    115.33919     185.6129    624.72521            0    925.67729   -6408.3572   -45.460554      16.9073      16.9207      16.9298            0            0            0   -2667.6312    465.97376    2324.8805    414.18448    -11115.68    2076.1573 
  193000    4843.3339     351.9094    598.73115    356.65153   -612.66522   -256.01369   -213.72228    -83.46728    4956.3659   -1534.2419    113.53069    189.73958     618.3064            0    921.57667   -6407.1406   -45.460554      16.9073      16.9207      16.9298            0            0            0   -1049.8411   -520.41482    467.30565   -986.89378    5044.0101   -2260.9229 
  194000    4843.3339    378.23708     552.4309    383.33399   -640.11194   -256.77795   -217.75696   -56.132248    4925.0666   -1542.6577     115.0206    166.65599    620.86914            0    902.54573    -6411.592   -45.460554      16.9073      16.9207      16.9298            0            0            0   -975.87222    1400.8475    -2910.565    3570.3658   -2520.4472    607.37405 
  195000    4843.3339    377.49971    3234.8495    382.58668   -646.19192   -263.60524   -35.111461   -80.514019    4949.7519   -1545.5105     101.8778    182.86015    614.58061            0    899.31856   -6414.7484   -45.460554      16.9073      16.9207      16.9298            0            0            0    -1367.181    326.16814    516.66252    4290.1438    4034.7992    1379.6056 
  196000    4843.3339    354.01962    4271.7479    358.79018   -622.30515   -263.51497    38.220194   -56.920019    4933.7891   -1535.2816    102.12629    193.97783    616.87234            0    912.97646   -6412.1507   -45.460554      16.9073      16.9207      16.9298            0            0            0   -2711.6392     3458.094   -2316.9935    2541.1682    4958.6676     5315.408 
  197000    4843.3339    376.50119    2148.0716     381.5747   -613.46794   -231.89324   -80.164078   -86.443597    4961.7191   -1532.1847    115.86237    181.25722    621.59713            0    918.71672   -6407.4602   -45.460554      16.9073      16.9207      16.9298            0            0            0   -370.97329    9.4281823    1408.1722      98.8374    6984.9243   -639.54695 
[...]
 9955000    4843.3339    375.76596   -468.86656    380.82956   -646.46868   -265.63912   -298.75754   -84.553097    4916.3773   -1580.6966    133.05811    180.19529     620.9745            0     934.2279   -6412.5208   -45.460554      16.9073      16.9207      16.9298            0            0            0    130.30214   -1809.1341    -1470.181    -365.7794    2118.6782   -3159.4985 
 9956000    4843.3339    365.23575    179.33874    370.15746   -639.15966    -269.0022    -256.3346   -52.897421    4867.6027   -1596.8526    135.69781    197.36605    624.62904            0     957.6929   -6411.5578   -45.460554      16.9073      16.9207      16.9298            0            0            0    234.57459    430.88712   -290.37884   -2232.4499    215.41644    2555.0497 
 9957000    4843.3339    382.61916    6643.9061    387.77511   -658.73156   -270.95644    198.33625   -62.660417    4899.4553   -1577.4527    119.57055     189.4729    609.67771            0    918.72115   -6414.2476   -45.460554      16.9073      16.9207      16.9298            0            0            0    1457.5699    2369.8486    2691.2527    11343.045    6392.8827    2195.7906 
 9958000    4843.3339    375.29179   -6136.7793      380.349   -673.60532   -293.25632   -726.72808   -86.775099    4895.1072   -1604.1968    128.33085      184.325    617.93565            0     930.5915   -6412.5289   -45.460554      16.9073      16.9207      16.9298            0            0            0   -1366.1263   -2751.4404    2468.8916    -4217.719    -7549.817   -6642.8018 
 9959000    4843.3339    359.46755   -833.09202    364.31152   -649.34097   -285.02945   -343.87495   -85.051916    4921.8927   -1573.3525    134.36748    168.42775    621.21627            0     924.0115   -6410.1932   -45.460554      16.9073      16.9207      16.9298            0            0            0    1300.3591   -2512.5254    -3591.052    484.97598    425.85073   -3410.1028 
 9960000    4843.3339    391.39495    258.98464    396.66916   -631.07641   -234.40725   -216.11386   -80.958766    4918.9844   -1569.7499    134.77439    179.39018     624.5089            0    938.67347   -6407.7755   -45.460554      16.9073      16.9207      16.9298            0            0            0    -2074.296   -1461.7214   -2982.6549   -176.38559   -800.68777    1754.0273 
 9961000    4843.3339    364.63065    1469.4397     369.5442   -695.60639   -326.06219   -222.26824   -77.866056     4903.772   -1587.1594    95.720767    181.70124    614.13096            0    891.55296   -6413.0653   -45.460554      16.9073      16.9207      16.9298            0            0            0     2043.176    927.10166   -45.366644    2130.6487     686.1258    1591.5444 
 9962000    4843.3339    402.33308    4790.2265    407.75468    -658.5702   -250.81552    87.542399   -55.873675    4892.8083   -1575.8562    120.57956    181.57897    615.12751            0    917.28604   -6412.7909   -45.460554      16.9073      16.9207      16.9298            0            0            0   -3192.1877   -7872.5015    565.13534    8213.6543    5416.6737    740.35142 
 9963000    4843.3339    360.74305   -3004.0719    365.60421   -673.60605   -308.00183   -520.19462   -101.90797     4932.961   -1580.1758     119.2809    175.56702    611.72182            0    906.56974   -6411.2288   -45.460554      16.9073      16.9207      16.9298            0            0            0   -2285.5388     1870.102    2088.3643   -407.70465   -4283.6494   -4320.8615 
 9964000    4843.3339    380.23876    3327.9777    385.36264   -620.39669   -235.03405  0.037844616   -85.838801    4951.2845   -1547.9694    118.40185    194.00776    615.16314            0    927.57274   -6413.4151   -45.460554      16.9073      16.9207      16.9298            0            0            0   -1147.2108    672.86596    739.60292    1515.1336    1594.0802    6874.7194 
 9965000    4843.3339    365.00546   -1579.0668    369.92406   -659.04883   -289.12477   -400.66224    -70.50825    4915.2521   -1562.2006    112.40759    169.46389    621.28033            0    903.15181   -6406.9445   -45.460554      16.9073      16.9207      16.9298            0            0            0    -2748.203    2499.6678   -962.04672    -4292.998   -3041.6193    2597.4168 
 9966000    4843.3339    384.20489    1485.9715    389.38221   -632.37562    -242.9934   -138.03172   -68.591264    4934.7077   -1542.5888    108.31101    178.33403    623.56815            0    910.21319   -6408.7053   -45.460554      16.9073      16.9207      16.9298            0            0            0   -918.51433   -216.03279    2265.8885   -1455.0605    960.67346    4952.3017 
 9967000    4843.3339    391.93056   -3336.1176    397.21199   -586.29803   -189.08604    -424.7329   -65.411705    4943.6043   -1531.0326     138.6823     180.9664     625.0859            0    944.73461   -6409.2253   -45.460554      16.9073      16.9207      16.9298            0            0            0   -2003.0126   -400.35946     1989.249    -58.10163    -7540.934   -2409.3173 
 9968000    4843.3339    359.13331    2659.9541    363.97278   -657.52957   -293.55679   -105.67078   -81.103486    4928.0317   -1564.0381    118.11883    169.44437    618.94529            0     906.5085   -6410.9662   -45.460554      16.9073      16.9207      16.9298            0            0            0    -2141.811    165.73035   -510.88995    5990.1139   -2384.2697    4374.0181 
 9969000    4843.3339    377.46289    1168.9255    382.54936   -616.81839   -234.26904   -151.70192   -59.294435     4933.484   -1534.5771    122.24897    177.25009    618.25965            0    917.75871   -6408.7667   -45.460554      16.9073      16.9207      16.9298            0            0            0    192.75163    -591.4362   -2767.4982    2931.7836    415.48259    159.51036 
 9970000    4843.3339     366.7439   -2779.3324    371.68593   -624.44752   -252.76159   -449.07989   -95.638926    4948.1913    -1553.713    118.28648     186.7715    624.20753            0    929.26552   -6406.2654   -45.460554      16.9073      16.9207      16.9298            0            0            0   -1026.8644     -1414.97    -2338.016   -1813.8405   -1962.5089   -4561.6477 
 9971000    4843.3339    350.76616     2312.391    355.49288   -619.22147   -263.72859   -100.39272   -69.433431    4925.9161   -1553.1249    127.23223     178.6607     628.0105            0    933.90343   -6409.6075   -45.460554      16.9073      16.9207      16.9298            0            0            0    465.48218   -72.130369   -813.79681     358.0711    4096.1466    2482.9555 
 9972000    4843.3339    369.68559   -591.30101    374.66726   -641.79917   -267.13191   -308.89849   -71.919091     4935.736   -1546.5597    109.75362    173.45251    621.55438            0     904.7605   -6410.3766   -45.460554      16.9073      16.9207      16.9298            0            0            0   -609.47204    1483.7914   -3186.9883   -1364.3601    1041.2722   -1450.8151 
 9973000    4843.3339    377.29913   -1489.9844    382.38339   -617.58363   -235.20024   -340.44538    -80.49814    4944.2934   -1543.7106    117.71382    195.62673    612.78639            0    926.12694   -6407.5059   -45.460554      16.9073      16.9207      16.9298            0            0            0    -4267.253   -970.92304    -6097.978    2454.6383   -318.82329   -6605.7683 
 9974000    4843.3339    371.90012   -770.69995    376.91163   -630.50161   -253.58999   -308.02842   -71.110237    4931.7115   -1547.8376    129.23755    163.12128    624.97717            0      917.336   -6408.4389   -45.460554      16.9073      16.9207      16.9298            0            0            0   -2175.6209   -2270.1511    -2867.911    268.37708   -1802.2749   -778.20206 
 9975000    4843.3339    394.21048   -1457.9915    399.52263   -605.51145   -205.98881   -308.97413   -105.30995    4959.1762   -1554.9975     126.0613    204.93445     618.4903            0    949.48605   -6408.8637   -45.460554      16.9073      16.9207      16.9298            0            0            0    2183.8958   -453.50194    1123.2865   -4467.3216    278.21336   -184.86637 
 9976000    4843.3339    337.73402   -3404.8754    342.28513   -606.89392    -264.6088   -505.11237   -99.185394    4970.8606   -1535.8719    129.97318    184.68228     614.3225            0    928.97796   -6407.5471   -45.460554      16.9073      16.9207      16.9298            0            0            0    1381.8205    1922.4875   -3557.6835   -3933.7572   -7722.0991      1441.23 
 9977000    4843.3339    371.51394    456.28823    376.52025   -602.65683   -226.13658   -193.90664   -73.061453    4954.5688   -1527.5353    128.22401    175.56781    621.08667            0    924.87849   -6409.0427   -45.460554      16.9073      16.9207      16.9298            0            0            0   -126.62889   -2426.7968    488.67295    167.30224   -2996.2506     4197.813 
 9978000    4843.3339    376.81043   -1856.9772    381.88811   -609.83623   -227.94813   -359.11582   -75.073924    4941.6123   -1543.4354    108.73629    208.00011    616.86275            0    933.59914   -6409.9737   -45.460554      16.9073      16.9207      16.9298            0            0            0    2783.7714      199.239    1777.8771    104.72653     -5242.54   -433.11807 
 9979000    4843.3339    362.01454    2877.0583    366.89284   -635.32746   -268.43462   -65.213442   -63.595463    4907.2085   -1561.9157    127.41013    185.87028    613.30787            0    926.58827   -6405.5288   -45.460554      16.9073      16.9207      16.9298            0            0            0   -4246.1891   -764.82114   -502.97143    2704.9802    2442.1702    3484.0246 
 9980000    4843.3339    384.97462   -1488.5697    390.16231   -642.11571    -251.9534   -357.09861    -69.48074    4898.7594   -1576.0779    121.35709    195.96549    616.63966            0    933.96223   -6405.3566   -45.460554      16.9073      16.9207      16.9298            0            0            0    2932.2016    1591.2779    208.83799   -1499.3545    355.29761   -3321.6523 
 9981000    4843.3339    369.32386    5291.2638    374.30065   -603.74625    -229.4456    144.30312   -79.041539    4947.9645    -1542.614     117.1623    194.78507    626.92034            0    938.86772   -6411.5369   -45.460554      16.9073      16.9207      16.9298            0            0            0   -2034.3881   -1726.3955    1874.0779    5312.8712    8506.6333    2054.2869 
 9982000    4843.3339    353.02039   -1999.6356    357.77749   -612.71166   -254.93418   -396.17855   -67.741936    4903.5197    -1570.989    125.96172    202.26504    630.05057            0    958.27733   -6406.7668   -45.460554      16.9073      16.9207      16.9298            0            0            0     160.7938   -137.69691   -2669.1131   -1270.9724   -4672.9931   -54.941191 
 9983000    4843.3339    362.69689    389.50254    367.58438   -564.32473   -196.74034   -169.22781   -83.990887    4962.0792   -1530.7446    139.30457    204.39986    622.71543            0    966.41986   -6408.8329   -45.460554      16.9073      16.9207      16.9298            0            0            0    732.49384   -1047.5718    1584.2028    2525.4255    5514.6118   -6871.5297 
 9984000    4843.3339    352.13111   -2438.7803    356.87622   -621.64499   -264.76877   -437.03216   -46.428415     4895.546    -1556.651    124.57785    191.29186    619.13628            0      935.006   -6405.7685   -45.460554      16.9073      16.9207      16.9298            0            0            0     348.4765    2222.1278    252.17078   -2601.3664   -3360.2047   -1354.7699 
 9985000    4843.3339    380.21475    3895.0967    385.33831   -616.42115   -231.08284     44.04754   -46.132739    4898.9223   -1556.0867    124.70259    191.77485    623.18812            0    939.66556   -6408.8763   -45.460554      16.9073      16.9207      16.9298            0            0            0   -38.915892   -5904.3391    1026.5221    4483.9562    2625.2639    4576.0702 
 9986000    4843.3339    399.32377    108.29566    404.70483   -665.02332   -260.31849   -252.66902   -67.469597    4888.2054   -1590.6334    110.51132    199.08107    616.01766            0    925.61005   -6411.3691   -45.460554      16.9073      16.9207      16.9298            0            0            0   -489.89398   -2713.7138    -1825.332   -865.86673    1174.0871    16.666618 
 9987000    4843.3339     382.6977    3926.0922    387.85471   -637.23241   -249.37769    27.942053   -84.917368    4922.2194   -1570.3798    106.54456    201.84642    624.75645            0    933.14743   -6407.6819   -45.460554      16.9073      16.9207      16.9298            0            0            0    3381.7751    586.87619    266.03466    1672.3687    3935.8377    6170.0701 
 9988000    4843.3339    389.05594    3082.5025    394.29863   -606.99473    -212.6961    5.0366431   -57.895565    4903.1136   -1556.0166    124.40312    198.10937    626.50942            0    949.02192   -6401.2347   -45.460554      16.9073      16.9207      16.9298            0            0            0     345.2823    3537.7163    1773.2809    3667.4173    1642.8059    3937.2844 
 9989000    4843.3339    387.24437    -2266.792    392.46265   -653.36925    -260.9066   -421.02158   -66.944993    4900.6738   -1568.6536     115.7709    176.90387    622.60954            0    915.28432   -6402.3824   -45.460554      16.9073      16.9207      16.9298            0            0            0    -127.6576    520.29053   -826.28628   -804.30325   -3741.9927     -2254.08 
 9990000    4843.3339    369.98374    1504.1121    374.96942   -617.42259   -242.45317   -136.21013   -67.228736    4900.1617   -1576.7524    133.00405    208.00181    618.32399            0    959.32985   -6409.6854   -45.460554      16.9073      16.9207      16.9298            0            0            0    704.18857   -917.78697   -1239.3742    3605.7393    227.51655    679.08045 
 9991000    4843.3339    372.70529    944.00231    377.72765   -634.59308   -256.86543   -190.18577   -87.459355    4943.4781   -1548.4134    99.998084    191.65902    622.16326            0    913.82035   -6404.4322   -45.460554      16.9073      16.9207      16.9298            0            0            0   -3572.8487   -1025.4953   -5278.9831   -1414.9225    1070.3719    3176.5576 
 9992000    4843.3339     384.4053    832.60405    389.58532   -629.42862    -239.8433   -181.03227   -66.057872    4925.7299   -1547.2915    131.03662    157.47419     629.3521            0    917.86291   -6406.9636   -45.460554      16.9073      16.9207      16.9298            0            0            0   -2221.1967    669.10002   -585.42376   -1604.8572    2501.9223     1600.747 
 9993000    4843.3339    389.04313   -904.59137    394.28565   -617.71579   -223.43014     -287.326   -90.766631    4937.7593    -1562.744    130.62511     187.9436    626.45952            0    945.02823   -6409.7367   -45.460554      16.9073      16.9207      16.9298            0            0            0     -543.023   -1740.8512   -1058.8579    3602.3859   -7289.6746    973.51465 
 9994000    4843.3339    376.96716   -957.03141    382.04695   -646.17223   -264.12527   -331.72524   -88.367206    4933.9229   -1563.2522    128.49451    157.85757    630.72787            0    917.07995   -6408.8079   -45.460554      16.9073      16.9207      16.9298            0            0            0   -2461.1821     981.7229    5791.0556   -494.28068   -836.71488   -1540.0987 
 9995000    4843.3339    390.68316    998.09368    395.94777   -645.92263   -249.97486   -179.47445   -71.274201    4898.9168   -1581.6571    124.80788    180.63616    630.29047            0    935.73451   -6409.2997   -45.460554      16.9073      16.9207      16.9298            0            0            0    -2943.756   -952.88933    1165.9449    3015.8381   -2812.2772    2790.7201 
 9996000    4843.3339    388.93679    1320.4651    394.17788   -668.33388     -274.156   -180.88487   -76.293867    4906.7526   -1580.9187    117.15393    170.76078     624.6701            0    912.58481   -6411.3774   -45.460554      16.9073      16.9207      16.9298            0            0            0   -995.47087   -5262.8593   -2223.6263   -88.087349   -1791.4626    5840.9454 
 9997000    4843.3339    364.00127    2854.1154    368.90633   -670.80653    -301.9002   -100.29959   -54.558726    4873.8263   -1590.5344    112.25537    187.75697    619.71551            0    919.72784   -6409.8019   -45.460554      16.9073      16.9207      16.9298            0            0            0    1178.5844    897.04459    -1282.377    3493.8684   -1921.5631    6990.0409 
 9998000    4843.3339    407.06364   -946.37723    412.54899   -639.65459   -227.10559     -293.953   -88.429993    4929.1131   -1561.9045    121.45198    177.16139    623.63651            0    922.24989   -6402.5876   -45.460554      16.9073      16.9207      16.9298            0            0            0    2492.9382   -1033.0128     1675.509   -3583.8682   -1518.9455     2263.682 
 9999000    4843.3339    367.28188   -935.73537    372.23116   -654.42231   -282.19115   -348.28687   -70.840498    4911.3545   -1572.1437    117.40129    180.37815    619.94194            0    917.72138   -6412.6577   -45.460554      16.9073      16.9207      16.9298            0            0            0   -2617.9231   -886.14921    1394.9936     1054.787   -1815.0397   -2046.9534 
10000000    4843.3339     371.3651   -936.03281     376.3694   -679.52138   -303.15199   -369.26872    -86.69115    4891.1881   -1606.2833    113.53054    192.90069    620.33072            0    926.76195   -6410.7802   -45.460554      16.9073      16.9207      16.9298            0            0            0    825.74001    -4828.911    1233.2193    116.83421   -3155.8852    230.95255 
Loop time of 5723.62 on 4 procs for 10000000 steps with 341 atoms

Performance: 150.953 ns/day, 0.159 hours/ns, 1747.145 timesteps/s
91.8% CPU use with 4 MPI tasks x 1 OpenMP threads

MPI task timing breakdown:
Section |  min time  |  avg time  |  max time  |%varavg| %total
---------------------------------------------------------------
Pair    | 1429.4     | 1611.6     | 1766       | 306.2 | 28.16
Bond    | 184.83     | 186.57     | 190.16     |  15.4 |  3.26
Kspace  | 2691.7     | 2835.1     | 3015.2     | 225.0 | 49.53
Neigh   | 195.68     | 196.04     | 196.45     |   2.6 |  3.43
Comm    | 746.22     | 754.34     | 766.61     |  28.1 | 13.18
Output  | 4.1421     | 4.212      | 4.409      |   5.5 |  0.07
Modify  | 48.762     | 52.352     | 56.916     |  49.6 |  0.91
Other   |            | 83.47      |            |       |  1.46

Nlocal:    85.25 ave 92 max 81 min
Histogram: 1 1 0 1 0 0 0 0 0 1
Nghost:    1626.75 ave 1632 max 1624 min
Histogram: 2 0 0 1 0 0 0 0 0 1
Neighs:    9122.5 ave 10660 max 8049 min
Histogram: 1 0 1 1 0 0 0 0 0 1

Total # of neighbors = 36490
Ave neighs/atom = 107.009
Ave special neighs/atom = 5.85924
Neighbor list builds = 406469
Dangerous builds = 0


write_restart   restart.${NAME}
write_restart   restart.mol
PPPM initialization ...
  using 12-bit tables for long-range coulomb (src/kspace.cpp:332)
  G vector (1/distance) = 0.371916
  grid = 12 12 12
  stencil order = 5
  estimated absolute RMS force accuracy = 0.0291692
  estimated relative force accuracy = 8.78421e-05
  using double precision KISS FFT
  3d grid and FFT values/proc = 3211 432
write_data	data.*
PPPM initialization ...
  using 12-bit tables for long-range coulomb (src/kspace.cpp:332)
  G vector (1/distance) = 0.371916
  grid = 12 12 12
  stencil order = 5
  estimated absolute RMS force accuracy = 0.0291692
  estimated relative force accuracy = 8.78421e-05
  using double precision KISS FFT
  3d grid and FFT values/proc = 3211 432
Total wall time: 1:35:24
