LAMMPS data file via write_data, version 3 Mar 2020, timestep = 10000000

294 atoms
8 atom types
226 bonds
5 bond types
275 angles
8 angle types
270 dihedrals
6 dihedral types

0.0000000000000000e+00 1.5436100000000000e+01 xlo xhi
0.0000000000000000e+00 1.5394000000000000e+01 ylo yhi
0.0000000000000000e+00 1.5438000000000001e+01 zlo zhi

Masses

1 6.941
2 16
3 19
4 12.01
5 32.06
6 14.01
7 16
8 1.008

Pair Coeffs # lj/cut/coul/long

1 0.0182661 2.126
2 0.209859 2.96
3 0.0609584 3.118
4 0.109326 3.4
5 0.249833 3.564
6 0.169886 3.25
7 0.155323 3.165
8 0 0

Bond Coeffs # harmonic

1 492.67 1.466
2 363.556 1.344
3 248.733 1.782
4 256.929 1.752
5 529.23 1.012

Angle Coeffs # harmonic

1 41.2526 108.48
2 45.27 121.88
3 43.0716 107.06
4 81.1647 109.67
5 71.2115 107.16
6 39.3938 103.12
7 109.646 119.18
8 37.9249 113.24

Dihedral Coeffs # charmm

1 0.143897 3 0 0
2 0.143897 3 0 0
3 0.499666 3 180 0
4 6.79545 1 180 0
5 0.499666 3 180 0
6 6.79545 1 180 0

Atoms # full

58 13 5 9.1100000000000003e-01 4.1125617527098299e+00 4.8624477258728236e+00 3.2672178479677423e+00 0 0 1
57 13 4 3.1900000000000001e-01 2.7333954425604596e+00 3.6831306004667588e+00 3.0401155740215504e+00 0 0 1
63 13 3 -1.3800000000000001e-01 2.5725649103349482e+00 2.9079337145274038e+00 4.0972916767791485e+00 0 0 1
56 13 3 -1.3800000000000001e-01 2.9343794477448841e+00 2.9319698623704862e+00 1.9316083315044987e+00 0 0 1
60 13 3 -1.3800000000000001e-01 1.5981787021668550e+00 4.4002375404725678e+00 2.8869409066748890e+00 0 0 1
61 13 6 -5.8799999999999997e-01 5.1464685008504913e+00 4.3226106195635490e+00 4.6301107036156353e+00 0 0 1
64 13 5 9.1100000000000003e-01 4.6182998179367472e+00 4.4394862090764891e+00 6.2750906434872835e+00 0 0 1
281 64 8 4.0999999999999998e-01 3.8417060901845979e+00 1.0432730799037917e+00 6.0895301299038529e+00 2 2 -1
252 54 8 4.0999999999999998e-01 6.2209917474071359e+00 1.3455650238061152e+00 2.3445603977053291e+00 -1 -2 -2
69 13 3 -1.3800000000000001e-01 1.9777784759318064e+00 4.8734000382665057e+00 5.9555198782169487e+00 0 0 1
251 54 8 4.0999999999999998e-01 6.8881134003148974e+00 1.0794637671376954e+00 9.5192519802575937e-01 -1 -2 -2
81 14 3 -1.3800000000000001e-01 1.2175001988712715e+00 2.2652174547091497e+00 6.8262096852644678e+00 1 0 1
250 54 7 -8.1999999999999995e-01 7.0398478984970208e+00 1.5790095744228740e+00 1.8212944369007118e+00 -1 -2 -2
62 13 2 -4.6100000000000002e-01 4.5546582209105875e+00 2.9688196491927217e+00 6.3976301327733918e+00 0 0 1
280 64 7 -8.1999999999999995e-01 3.9983512171950402e+00 4.7834131476437343e-02 6.1170788023030083e+00 2 2 -1
4 4 1 8.0000000000000004e-01 7.5361037867580203e+00 5.0448808587937979e+00 5.3295164043542647e+00 -2 0 -1
59 13 2 -4.6100000000000002e-01 4.9905944985763879e+00 4.7893649411537416e+00 2.1001685284090650e+00 0 0 1
65 13 2 -4.6100000000000002e-01 5.7240221481673386e+00 5.0982072787038879e+00 6.9462437610645411e+00 0 0 1
221 44 8 4.0999999999999998e-01 6.5237536611380413e+00 2.6004123264111421e+00 5.8476432340927138e+00 -2 -1 -4
134 18 2 -4.6100000000000002e-01 1.3921538310295969e+00 6.9720078780641215e-01 1.1395369305659173e+00 -1 0 0
220 44 7 -8.1999999999999995e-01 7.4964954844195582e+00 3.0051649244718344e+00 5.9518392705214582e+00 -2 -1 -4
168 26 8 4.0999999999999998e-01 6.5319095116225458e+00 5.1668505311142638e+00 1.8323989931267086e+00 -1 0 -5
195 35 8 4.0999999999999998e-01 4.8053194710596980e-01 9.7973347488063762e+00 3.1612268516288302e+00 -3 -1 0
68 13 4 3.1900000000000001e-01 3.0337881856531439e+00 5.3624523725660227e+00 6.6609919272952531e+00 0 0 1
66 13 3 -1.3800000000000001e-01 3.2317824679105294e+00 6.6831534721130250e+00 6.5304212424889876e+00 0 0 1
55 13 2 -4.6100000000000002e-01 3.4940265713186101e+00 6.1245499042437741e+00 3.7118294361571476e+00 0 0 1
147 19 8 4.0999999999999998e-01 4.1921275578767290e+00 8.9823192319993250e+00 5.9344270596015223e+00 1 0 0
49 12 5 9.1100000000000003e-01 7.0782590343367069e+00 8.1582853462388805e+00 3.6679352042573323e+00 0 -2 0
46 12 6 -5.8799999999999997e-01 5.4679475671294115e+00 8.5732415389245276e+00 3.0809628179790427e+00 0 -2 0
45 12 3 -1.3800000000000001e-01 3.1201270674428794e+00 8.5163177606162925e+00 7.1459468047202956e-01 0 -2 0
42 12 4 3.1900000000000001e-01 4.4364312496347003e+00 8.9212949223439200e+00 4.1880643523194766e-01 0 -2 0
43 12 5 9.1100000000000003e-01 5.2467805528385760e+00 9.7398115166952710e+00 1.7774436358538193e+00 0 -2 0
214 42 7 -8.1999999999999995e-01 1.0485234427631411e+00 7.3498401390238062e+00 3.8493971826884512e+00 1 4 -2
215 42 8 4.0999999999999998e-01 1.9716545459556902e+00 6.9506741711702134e+00 3.7899138888757484e+00 1 4 -2
47 12 2 -4.6100000000000002e-01 6.6825520121699853e+00 6.9239863311282601e+00 4.2796702154727528e+00 0 -2 0
145 19 7 -8.1999999999999995e-01 3.5816955919584408e+00 9.3661122862603179e+00 5.1964424887276319e+00 1 0 0
146 19 8 4.0999999999999998e-01 3.9735635254945501e+00 8.7710912895063888e+00 4.3955794342374839e+00 1 0 0
48 12 3 -1.3800000000000001e-01 5.1260680751452021e+00 7.8109372627961235e+00 2.9862658872210665e-02 0 -2 0
258 56 8 4.0999999999999998e-01 1.3807047202792971e-01 7.6473202482518401e+00 5.3936150572502717e+00 2 1 -1
216 42 8 4.0999999999999998e-01 4.8318825259545939e-01 6.9158670623078145e+00 3.0533751292796096e+00 1 4 -2
52 12 3 -1.3800000000000001e-01 6.7946900617886943e+00 9.3511734997200335e+00 5.9815114916220509e+00 0 -2 0
2 2 1 8.0000000000000004e-01 1.4443653076665224e+00 9.7621243435819984e+00 5.5429551572540996e+00 1 -1 -1
167 26 8 4.0999999999999998e-01 7.6278510582485755e+00 6.4089918549656666e+00 1.9253616211200051e+00 -1 0 -5
166 26 7 -8.1999999999999995e-01 7.5313765620006246e+00 5.4098357147687119e+00 1.7116777261546379e+00 -1 0 -5
53 12 4 3.1900000000000001e-01 7.4616505659539403e+00 9.5613598467778242e+00 4.8223428958586911e+00 0 -2 0
284 65 8 4.0999999999999998e-01 5.7503983223787420e+00 1.4993737545003095e+01 5.1131754921443342e+00 -2 -5 -2
283 65 7 -8.1999999999999995e-01 6.4394672028564832e+00 1.5340445468961976e+01 4.4318928017796759e+00 -2 -5 -2
187 33 7 -8.1999999999999995e-01 3.4759079281452969e+00 1.2014820178634022e+01 5.7103320316808270e+00 1 -3 -2
139 18 5 9.1100000000000003e-01 3.4698352857246056e-01 1.3117377234975708e+01 2.1726810961974219e-01 -1 -1 0
143 18 4 3.1900000000000001e-01 1.5522473755475641e+00 1.1793752388827231e+01 1.5797512879661957e-01 -1 -1 0
125 17 2 -4.6100000000000002e-01 7.5480455165296876e+00 1.3432481721551449e+01 1.4977908312356143e+00 0 -2 -1
44 12 2 -4.6100000000000002e-01 6.5617926447452373e+00 1.0317092552698485e+01 1.3217260836531897e+00 0 -2 0
202 38 7 -8.1999999999999995e-01 4.7045884285565869e+00 1.3211970111076470e+01 3.3500706900811310e+00 1 0 1
285 65 8 4.0999999999999998e-01 7.1280436082042691e+00 1.4570093422286165e+01 4.3307984405530062e+00 -2 -5 -2
193 35 7 -8.1999999999999995e-01 3.9425002752464799e-01 1.0405260978313997e+01 3.9310850994160518e+00 -3 -1 0
54 12 3 -1.3800000000000001e-01 7.0642125801935940e+00 1.0772836127565080e+01 4.2638810579310524e+00 0 -2 0
137 18 2 -4.6100000000000002e-01 4.9884782420354207e-01 1.3575358889145528e+01 1.5937289223381781e+00 -1 -1 0
203 38 8 4.0999999999999998e-01 4.4991304855052947e+00 1.2245732459506796e+01 3.1090580936497165e+00 1 0 1
144 18 3 -1.3800000000000001e-01 2.7562592759467339e+00 1.2146694299562570e+01 7.7338374327188664e-01 -1 -1 0
100 16 2 -4.6100000000000002e-01 5.0780710833930442e-01 1.1069457167722899e+01 6.8904114604195410e+00 0 1 -2
40 12 2 -4.6100000000000002e-01 4.2241297742984809e+00 1.0493269828240761e+01 2.5296950053549523e+00 0 -2 0
264 58 8 4.0999999999999998e-01 1.0607310830974914e+00 1.5252534029090931e+01 4.0183657418418077e+00 -1 -2 1
179 30 8 4.0999999999999998e-01 6.5012767839891046e+00 1.3083199852379924e+01 6.2846668184757748e+00 -5 6 -2
263 58 8 4.0999999999999998e-01 1.8413858249295176e+00 1.4980163897533686e+01 2.6765737829989211e+00 -1 -2 1
3 3 1 8.0000000000000004e-01 3.4374852595038905e+00 1.3920762936517956e+01 4.7018076495645742e+00 -2 1 -1
142 18 3 -1.3800000000000001e-01 1.0531114136455106e+00 1.0732116209832821e+01 7.9858441050770645e-01 -1 -1 0
282 64 8 4.0999999999999998e-01 4.3305588841593794e+00 1.5165533523707815e+01 6.9856446819001183e+00 2 1 -1
188 33 8 4.0999999999999998e-01 4.2955642379958192e+00 1.2286939815732332e+01 6.3489506242414242e+00 1 -3 -2
178 30 7 -8.1999999999999995e-01 5.7198201603728505e+00 1.2894663041718736e+01 6.9002650593211916e+00 -5 6 -2
204 38 8 4.0999999999999998e-01 5.3632845270959191e+00 1.3450931932137687e+01 2.6332121992526507e+00 1 0 1
189 33 8 4.0999999999999998e-01 3.5360667015149363e+00 1.1021867109676487e+01 5.4748242897292485e+00 1 -3 -2
262 58 7 -8.1999999999999995e-01 1.9597204376847033e+00 1.4984733505096207e+01 3.6864438595800468e+00 -1 -2 1
25 11 2 -4.6100000000000002e-01 6.7490474804509528e+00 4.5494336190750246e+00 1.2512697130597079e+01 -1 -1 0
30 11 3 -1.3800000000000001e-01 4.2545429228890272e+00 4.5360036355864493e+00 1.0881951440206793e+01 -1 -1 0
71 14 3 -1.3800000000000001e-01 1.4347132398925830e+00 1.8172031950868712e+00 9.5818597205503959e+00 1 0 1
78 14 3 -1.3800000000000001e-01 1.7622727222655425e+00 2.5593004307549294e+00 1.1631807431088484e+01 1 0 1
31 11 6 -5.8799999999999997e-01 7.3010367736256532e+00 4.3506004655051758e+00 9.9145541535065327e+00 -1 -1 0
130 18 2 -4.6100000000000002e-01 7.7900134164655388e-01 1.4134885551281766e+00 1.4285375051204193e+01 -1 0 -1
72 14 4 3.1900000000000001e-01 8.2338567008808394e-01 2.2689723614629291e+00 1.0692056520962982e+01 1 0 1
39 11 3 -1.3800000000000001e-01 5.4942640881924074e+00 1.7432879764656970e+00 9.5229730615561170e+00 -1 -1 0
138 18 3 -1.3800000000000001e-01 3.9634145105820626e+00 1.4730047190055962e+00 1.4808720372961062e+01 -1 0 -1
132 18 4 3.1900000000000001e-01 3.2541017908583427e+00 3.9379221610564780e-01 1.4515273074294832e+01 -1 0 -1
38 11 4 3.1900000000000001e-01 6.3857457317687727e+00 1.5658629721250721e+00 1.0483763061524881e+01 -1 -1 0
131 18 3 -1.3800000000000001e-01 3.3403205124706115e+00 1.0553991988666449e-01 1.3205699812148586e+01 -1 0 -1
158 23 8 4.0999999999999998e-01 7.2978114859040630e+00 2.3929847284854855e+00 1.4280337788404584e+01 -1 2 -2
133 18 5 9.1100000000000003e-01 1.5799806278642476e+00 5.4103523382533403e-01 1.5154550145131179e+01 -1 0 -1
36 11 3 -1.3800000000000001e-01 5.7582586387196129e+00 1.7817140514264973e+00 1.1623118365211873e+01 -1 -1 0
37 11 3 -1.3800000000000001e-01 6.7301250560214116e+00 2.5374613992997264e-01 1.0547371753794636e+01 -1 -1 0
86 15 3 -1.3800000000000001e-01 8.5512762893636696e-01 4.2280700644406108e+00 1.5339111154038649e+01 -1 1 0
115 17 2 -4.6100000000000002e-01 6.8761507994132298e+00 3.9044441786951788e-02 1.4896206086862602e+01 0 -1 -2
70 14 2 -4.6100000000000002e-01 5.1052963324344225e-01 4.9944014483424155e+00 1.0575230101576395e+01 1 0 1
75 14 3 -1.3800000000000001e-01 1.3172526575986249e-01 1.2015630607911700e+00 1.1195550571522299e+01 1 0 1
67 13 3 -1.3800000000000001e-01 2.6272561072601839e+00 5.2286731072231349e+00 7.9338132805899075e+00 0 0 1
200 37 8 4.0999999999999998e-01 2.6206145155616107e-02 6.3711978537356844e+00 9.1116694738923751e+00 0 0 -2
291 67 8 4.0999999999999998e-01 3.1042268903983827e-01 7.5760079663747133e+00 1.2560119890704724e+01 1 1 -4
27 11 4 3.1900000000000001e-01 4.9169792390462019e+00 5.7022857044659698e+00 1.0889683966697165e+01 -1 -1 0
26 11 3 -1.3800000000000001e-01 4.3431832068681198e+00 6.4809534259874848e+00 1.1809171129633365e+01 -1 -1 0
28 11 5 9.1100000000000003e-01 6.6730189021496500e+00 5.2348893673364083e+00 1.1284110236847521e+01 -1 -1 0
199 37 7 -8.1999999999999995e-01 1.2683121468989231e-01 7.3313964348958907e+00 8.7112211233902652e+00 0 0 -2
112 16 3 -1.3800000000000001e-01 4.7065546447518853e+00 9.5391361959462682e+00 1.1472081274557397e+01 0 1 -2
33 11 3 -1.3800000000000001e-01 4.8044547365422305e+00 6.3340895736732996e+00 9.6954416846824856e+00 -1 -1 0
110 16 2 -4.6100000000000002e-01 2.1900868650447052e+00 8.3590754385230213e+00 1.0062789452408760e+01 0 1 -2
111 16 3 -1.3800000000000001e-01 4.9256521255202683e+00 9.5252512731092089e+00 9.2583325307132025e+00 0 1 -2
201 37 8 4.0999999999999998e-01 1.0151456943458108e+00 7.7222753283867833e+00 9.1083026385438171e+00 0 0 -2
29 11 2 -4.6100000000000002e-01 7.4089267693051646e+00 6.4877523198205571e+00 1.1226926915032475e+01 -1 -1 0
161 24 8 4.0999999999999998e-01 2.6241702185296014e+00 8.7897382336869327e+00 1.3107572834520626e+01 0 1 -3
162 24 8 4.0999999999999998e-01 2.6424353298820047e+00 7.1821975486662080e+00 1.3614723120726591e+01 0 1 -3
160 24 7 -8.1999999999999995e-01 2.0996766587095470e+00 7.9741265493494273e+00 1.3303930697616222e+01 0 1 -3
109 16 5 9.1100000000000003e-01 2.5636560563072122e+00 9.8297418124041922e+00 1.0208749959484846e+01 0 1 -2
113 16 4 3.1900000000000001e-01 4.3366419618598204e+00 1.0037003112530703e+01 1.0317327482844030e+01 0 1 -2
254 55 8 4.0999999999999998e-01 7.5753396660818879e+00 7.9281536331873550e+00 1.4601193230758119e+01 -4 2 -6
41 12 3 -1.3800000000000001e-01 4.3201959078032726e+00 9.6316240527470516e+00 1.4744294491506212e+01 0 -2 -1
225 45 8 4.0999999999999998e-01 7.7082256535034679e+00 5.8448321778599688e+00 7.7712403825728655e+00 -4 0 1
123 17 3 -1.3800000000000001e-01 7.5806627723425803e+00 1.1838583261266381e+01 1.3335274903001876e+01 0 -2 -2
180 30 8 4.0999999999999998e-01 5.9310836729077270e+00 1.2915564897724892e+01 7.9111129486152452e+00 -5 6 -2
107 16 2 -4.6100000000000002e-01 1.8155351874187544e+00 1.0742637789640730e+01 1.1053205000736243e+01 0 1 -2
114 16 3 -1.3800000000000001e-01 4.5335758837968267e+00 1.1361911085543408e+01 1.0282116681036147e+01 0 1 -2
117 17 4 3.1900000000000001e-01 6.8281185192765665e+00 1.2966864924274315e+01 1.3714782645950232e+01 0 -2 -2
135 18 3 -1.3800000000000001e-01 3.9878372730965785e+00 1.4832580254166579e+01 1.5093306128881347e+01 -1 -1 -1
106 16 6 -5.8799999999999997e-01 2.2583727618123119e+00 1.0562222597778360e+01 8.5918571399955130e+00 0 1 -2
120 17 3 -1.3800000000000001e-01 6.0462713096265874e+00 1.2606556077197402e+01 1.4692742206157060e+01 0 -2 -2
102 16 4 3.1900000000000001e-01 9.5600162452159676e-01 1.3263276486905857e+01 8.5672735610071200e+00 0 1 -2
103 16 5 9.1100000000000003e-01 8.4628149011587428e-01 1.1439356192233221e+01 8.2628373330620359e+00 0 1 -2
234 48 8 4.0999999999999998e-01 7.4947242735263062e+00 1.1932748574624643e+01 9.4659020058608156e+00 0 -3 0
136 18 6 -5.8799999999999997e-01 8.7931588579377717e-01 1.4383963830657498e+01 1.4654905918762665e+01 -1 -1 -1
232 48 7 -8.1999999999999995e-01 6.8167297619131491e+00 1.2760554031643906e+01 9.3283053444374495e+00 0 -3 0
233 48 8 4.0999999999999998e-01 7.0916818345397639e+00 1.3406639455956757e+01 1.0056716112385491e+01 0 -3 0
108 16 3 -1.3800000000000001e-01 1.4407237806264583e+00 1.3526567062342480e+01 9.7851232266130204e+00 0 1 -2
116 17 3 -1.3800000000000001e-01 5.9747295454973539e+00 1.3132043039948980e+01 1.2681311112033166e+01 0 -2 -2
141 18 3 -1.3800000000000001e-01 1.9396250181944208e+00 1.1507522068749184e+01 1.4303095098674950e+01 -1 -1 -1
152 21 8 4.0999999999999998e-01 1.5029067755466974e-01 1.0847429058138133e+01 1.1867980403420777e+01 -2 -5 1
105 16 3 -1.3800000000000001e-01 1.9382109387546735e+00 1.3794635709776166e+01 7.8126802785934357e+00 0 1 -2
235 49 7 -8.1999999999999995e-01 1.3095481104056125e+01 4.3387073582334716e+00 4.3757521020581276e+00 -2 1 0
286 66 7 -8.1999999999999995e-01 1.0618977265508097e+01 3.7162480380920919e+00 7.4260417554575664e-01 0 -1 1
288 66 8 4.0999999999999998e-01 1.1122222429636166e+01 2.9133780155058036e+00 1.1380357692286918e+00 0 -1 1
287 66 8 4.0999999999999998e-01 1.1217329679661837e+01 4.5731965898001485e+00 8.2668056019749658e-01 0 -1 1
9 9 1 8.0000000000000004e-01 1.1068974908782968e+01 5.9790584773020916e-01 3.2748424263991120e+00 0 0 -3
218 43 8 4.0999999999999998e-01 1.2299096432736858e+01 2.7720295738435561e+00 4.6552485650170485e+00 -1 0 -1
217 43 7 -8.1999999999999995e-01 1.1859983439188357e+01 1.8606228186589440e+00 4.8988306835799538e+00 -1 0 -1
219 43 8 4.0999999999999998e-01 1.2061177019994586e+01 1.7202501233441476e+00 5.9144096496570482e+00 -1 0 -1
205 39 7 -8.1999999999999995e-01 1.2093938673644223e+01 1.5431030021734138e+00 1.7009884209745803e+00 -1 0 -1
206 39 8 4.0999999999999998e-01 1.3064479153298050e+01 1.5904199984378227e+00 1.9221480250402563e+00 -1 0 -1
80 14 2 -4.6100000000000002e-01 1.2899554627765641e+01 3.0534441683916933e+00 7.4763337245753174e+00 0 0 1
272 61 8 4.0999999999999998e-01 8.7249514221754865e+00 1.9661145263797222e+00 4.4597736340972824e+00 -1 0 -3
271 61 7 -8.1999999999999995e-01 9.1078233917537368e+00 1.6827897440108353e+00 3.4983694739450648e+00 -1 0 -3
273 61 8 4.0999999999999998e-01 8.2410070285436507e+00 1.4993772637580829e+00 2.8924914263841557e+00 -1 0 -3
84 14 3 -1.3800000000000001e-01 1.5095354835548831e+01 1.1480258750681125e+00 5.8228236849820068e+00 0 0 1
21 10 3 -1.3800000000000001e-01 1.0094835144440907e+01 8.4006148448070805e-01 7.2619678876388063e+00 1 0 1
237 49 8 4.0999999999999998e-01 1.3268212606777139e+01 4.7359143425072441e+00 3.4944859866127884e+00 -2 1 0
236 49 8 4.0999999999999998e-01 1.2762443951838677e+01 5.1237151668397800e+00 5.0106533018746120e+00 -2 1 0
24 10 3 -1.3800000000000001e-01 7.8700203198629834e+00 2.0143415546480842e-01 6.9923187719290558e+00 1 0 1
6 6 1 8.0000000000000004e-01 8.2003583251531840e+00 3.3938248314270463e+00 1.1694885124180501e+00 -1 0 -1
183 31 8 4.0999999999999998e-01 9.8729045266899060e+00 3.8755938003730046e+00 4.4744509635861318e+00 -2 -3 -2
222 44 8 4.0999999999999998e-01 8.0512125954747695e+00 2.6022962314996887e+00 6.7192913638076339e+00 -2 -1 -4
82 14 3 -1.3800000000000001e-01 1.5119725999667562e+01 3.2604127608306190e+00 5.6778636392896917e+00 0 0 1
93 15 3 -1.3800000000000001e-01 1.4355002281923646e+01 3.3939918313392639e+00 2.3626275250914225e-01 -2 1 1
172 28 7 -8.1999999999999995e-01 1.4474038390164043e+01 1.5737695245655043e+00 2.7620061277681209e+00 3 3 2
192 34 8 4.0999999999999998e-01 1.1642977806146428e+01 4.7633444414014479e+00 7.2492331783413775e+00 -1 -2 -3
181 31 7 -8.1999999999999995e-01 9.3537849580592010e+00 4.7660641191968329e+00 4.3690022228553786e+00 -2 -3 -2
83 14 4 3.1900000000000001e-01 1.5330028843624646e+01 2.2889685612662363e+00 6.5836148917834789e+00 0 0 1
207 39 8 4.0999999999999998e-01 1.1967976179069611e+01 1.2948391444246319e+00 6.7543685443439339e-01 -1 0 -1
174 28 8 4.0999999999999998e-01 1.4919443561417474e+01 2.3604438816656828e+00 3.2260478181097194e+00 3 3 2
173 28 8 4.0999999999999998e-01 1.5175191482183108e+01 1.0068602813806822e+00 2.3512220546791838e+00 3 3 2
89 15 2 -4.6100000000000002e-01 1.5094732377725233e+01 5.9987546383280232e+00 1.9168860526229214e+00 -2 1 1
223 45 7 -8.1999999999999995e-01 8.6511024901349103e+00 5.7422705879199940e+00 7.3222361550075288e+00 -4 0 1
256 56 7 -8.1999999999999995e-01 1.5015170484609051e+01 8.1652858055593018e+00 6.0628599655947903e+00 1 1 -1
88 15 5 9.1100000000000003e-01 1.4474722128307594e+01 6.0259036121762097e+00 5.9264212928181237e-01 -2 1 1
294 68 8 4.0999999999999998e-01 1.2382550821524431e+01 9.0845457657464710e+00 5.3916619468118245e+00 -1 -1 0
190 34 7 -8.1999999999999995e-01 1.1545052702742922e+01 5.6560016505787836e+00 6.7458975439410827e+00 -1 -2 -3
51 12 3 -1.3800000000000001e-01 8.7847547327243429e+00 9.5831828035646307e+00 5.1069670293611598e+00 0 -2 0
293 68 8 4.0999999999999998e-01 1.3661966793879090e+01 8.8046006517385145e+00 6.4048337838189031e+00 -1 -1 0
99 15 3 -1.3800000000000001e-01 1.3054035704573520e+01 9.4355528145202001e+00 1.2445782003593790e+00 -2 1 1
182 31 8 4.0999999999999998e-01 9.7302527033447710e+00 5.1438195910003381e+00 3.5237410356567431e+00 -2 -3 -2
96 15 3 -1.3800000000000001e-01 1.3602638195307886e+01 8.2408967196584353e+00 3.0241159661570127e+00 -2 1 1
91 15 6 -5.8799999999999997e-01 1.2770250004443113e+01 5.7595140697022291e+00 1.0179117541091034e+00 -2 1 1
95 15 2 -4.6100000000000002e-01 1.1024466498046431e+01 6.4869860188429165e+00 2.4207931661836151e+00 -2 1 1
94 15 5 9.1100000000000003e-01 1.1751126410238088e+01 7.1581962850181959e+00 1.3900838099316868e+00 -2 1 1
98 15 4 3.1900000000000001e-01 1.2596910342049441e+01 8.5901531929743502e+00 2.1643141090510274e+00 -2 1 1
97 15 3 -1.3800000000000001e-01 1.1682230174208687e+01 9.3500982001088087e+00 2.8581514655463924e+00 -2 1 1
292 68 7 -8.1999999999999995e-01 1.2642667663557793e+01 9.0396065683287343e+00 6.3814919405653168e+00 -1 -1 0
191 34 8 4.0999999999999998e-01 1.0594703822649253e+01 5.8187197816016258e+00 6.3287864276250136e+00 -1 -2 -3
50 12 2 -4.6100000000000002e-01 7.9192137840182868e+00 8.0309771128671912e+00 2.4495048365649161e+00 0 -2 0
92 15 2 -4.6100000000000002e-01 1.1253214876773193e+01 7.5091752470671675e+00 5.0068345346587141e-02 -2 1 1
257 56 8 4.0999999999999998e-01 1.5274754299220890e+01 7.6630018253851047e+00 6.9677277792127912e+00 1 1 -1
270 60 8 4.0999999999999998e-01 1.0691287415252093e+01 1.0966952992736639e+01 7.2416786722205488e+00 1 1 -1
128 17 4 3.1900000000000001e-01 9.9469074270409994e+00 1.1976700804732939e+01 1.3454948446356190e+00 0 -2 -1
124 17 5 9.1100000000000003e-01 9.0052679596382816e+00 1.3499530102087606e+01 1.1923122088385385e+00 0 -2 -1
122 17 2 -4.6100000000000002e-01 9.7687926897007600e+00 1.4606322921909777e+01 1.7034215728545063e+00 0 -2 -1
14 10 2 -4.6100000000000002e-01 1.2941503570488262e+01 1.2506517244216383e+01 7.1161748683808730e+00 1 -1 1
126 17 3 -1.3800000000000001e-01 9.4708684818686439e+00 1.1064607284909243e+01 4.9129925532288860e-01 0 -2 -1
20 10 2 -4.6100000000000002e-01 8.3065005304986119e+00 1.3425833528021702e+01 5.3982516350546907e+00 1 -1 1
10 10 2 -4.6100000000000002e-01 1.2603842211499360e+01 1.4849745764199362e+01 6.7274493516091445e+00 1 -1 1
13 10 5 9.1100000000000003e-01 1.2445923289990533e+01 1.3464179876343545e+01 6.2193733742907265e+00 1 -1 1
17 10 2 -4.6100000000000002e-01 1.0270334709820899e+01 1.4750920306318141e+01 4.6893464712578545e+00 1 -1 1
12 10 4 3.1900000000000001e-01 1.3315237166776958e+01 1.3545688027865427e+01 4.6042325587717405e+00 1 -1 1
11 10 3 -1.3800000000000001e-01 1.2973095223231644e+01 1.4511901381341568e+01 3.7309496238632178e+00 1 -1 1
19 10 5 9.1100000000000003e-01 9.5724479960603777e+00 1.4144795572733232e+01 5.8134141706080946e+00 1 -1 1
15 10 3 -1.3800000000000001e-01 1.3464295352733243e+01 1.2327236537871860e+01 3.9246741628536079e+00 1 -1 1
127 17 3 -1.3800000000000001e-01 9.7737738619948935e+00 1.1424027746619208e+01 2.5643598118913418e+00 0 -2 -1
18 10 3 -1.3800000000000001e-01 1.4567650530145547e+01 1.3877830513206543e+01 4.8535205530404530e+00 1 -1 1
23 10 4 3.1900000000000001e-01 9.1786103232580256e+00 1.5228131980269749e+01 7.1995735426587295e+00 1 -1 1
16 10 6 -5.8799999999999997e-01 1.0816091480533737e+01 1.2975773229825345e+01 6.1546206550667293e+00 1 -1 1
129 17 3 -1.3800000000000001e-01 1.1279664352941314e+01 1.2265217905818556e+01 1.1239761275432605e+00 0 -2 -1
194 35 8 4.0999999999999998e-01 1.5353155127369096e+01 1.1247171255796122e+01 3.6373413631262026e+00 -4 -1 0
8 8 1 8.0000000000000004e-01 1.0164820196349956e+01 3.0580993018727045e+00 1.4201589150425580e+01 -2 1 0
208 40 7 -8.1999999999999995e-01 1.1850614148465967e+01 2.7247919849894484e+00 1.2522021231980657e+01 1 -3 2
35 11 2 -4.6100000000000002e-01 8.5791725676756521e+00 2.7434757871743303e+00 1.1373252784033363e+01 -1 -1 0
76 14 6 -5.8799999999999997e-01 1.4728773846093807e+01 3.8854359291122256e+00 8.7675905741071283e+00 0 0 1
74 14 2 -4.6100000000000002e-01 1.3903243803294568e+01 3.4639971658846820e+00 1.1107641425580617e+01 0 0 1
227 46 8 4.0999999999999998e-01 1.4259733171760040e+01 8.1640800859814444e-01 1.4120613859315537e+01 -1 2 -3
226 46 7 -8.1999999999999995e-01 1.3252919519690952e+01 6.4336500203247515e-01 1.3887614155113880e+01 -1 2 -3
209 40 8 4.0999999999999998e-01 1.2396861161817265e+01 3.3169851969004158e+00 1.1909330387627836e+01 1 -3 2
210 40 8 4.0999999999999998e-01 1.2602632068286153e+01 2.1663229099741512e+00 1.2917128598762716e+01 1 -3 2
77 14 2 -4.6100000000000002e-01 1.4160748287111765e+01 1.3743600827795734e+00 8.7515595694121195e+00 0 0 1
73 14 5 9.1100000000000003e-01 1.5180346062917112e+01 3.6650828366395953e+00 1.0458375119710869e+01 0 0 1
79 14 5 9.1100000000000003e-01 1.4200190742593698e+01 2.5168279478805466e+00 7.9024428560631570e+00 0 0 1
165 25 8 4.0999999999999998e-01 1.1337754820619892e+01 1.1276257416382083e+00 1.1196819178025535e+01 3 0 0
87 15 4 3.1900000000000001e-01 1.4963677879475878e+01 4.5187515750301896e+00 1.5159956335063789e+01 -2 1 0
198 36 8 4.0999999999999998e-01 1.0181001132044774e+01 2.6246052529105601e-01 1.4959799805411205e+01 -1 2 1
229 47 7 -8.1999999999999995e-01 9.7409548651065805e+00 5.0940978939631743e+00 1.3943987519357140e+01 -3 1 -1
197 36 8 4.0999999999999998e-01 1.1580278113173895e+01 8.4277641038598117e-01 1.4271403016192265e+01 -1 2 1
90 15 3 -1.3800000000000001e-01 1.4701942078625336e+01 4.4452199805142589e+00 1.3861466954395294e+01 -2 1 0
278 63 8 4.0999999999999998e-01 9.7593529168443531e+00 4.6631267690752463e+00 1.1609497884282490e+01 -2 -4 3
196 36 7 -8.1999999999999995e-01 1.0742637810249599e+01 1.1197008341986290e+00 1.4785418667120110e+01 -1 2 1
34 11 5 9.1100000000000003e-01 7.7928147188082066e+00 2.6622807807867104e+00 1.0158241608086572e+01 -1 -1 0
32 11 2 -4.6100000000000002e-01 8.3684527908871544e+00 2.4396781504656455e+00 8.7817624551002993e+00 -1 -1 0
163 25 7 -8.1999999999999995e-01 1.0740780536917546e+01 3.4398904830909466e-01 1.1185222200214501e+01 3 0 0
164 25 8 4.0999999999999998e-01 9.8457386373419666e+00 6.5292814742839800e-01 1.1534701087237966e+01 3 0 0
185 32 8 4.0999999999999998e-01 1.3387254792919952e+01 5.0341249761954057e+00 9.2239481083762183e+00 -4 -1 -5
159 23 8 4.0999999999999998e-01 7.8544783836293206e+00 3.8525249094093503e+00 1.3816433832507713e+01 -1 2 -2
157 23 7 -8.1999999999999995e-01 7.7634484331818774e+00 3.2190564703704032e+00 1.4602993590412243e+01 -1 2 -2
1 1 1 8.0000000000000004e-01 1.2416828528965400e+01 7.3259228826442921e+00 7.8974137297200970e+00 0 1 -1
186 32 8 4.0999999999999998e-01 1.2136989074160406e+01 5.6472551480157192e+00 1.0183722380412989e+01 -4 -1 -5
230 47 8 4.0999999999999998e-01 9.6245526904912815e+00 5.8186783545473757e+00 1.4714104302803191e+01 -3 1 -1
231 47 8 4.0999999999999998e-01 1.0084053260126080e+01 5.5797768191288100e+00 1.3075888479741776e+01 -3 1 -1
238 50 7 -8.1999999999999995e-01 1.0244852151516662e+01 7.7446646740243592e+00 8.3870069389546078e+00 0 -2 -2
255 55 8 4.0999999999999998e-01 9.0655293933229366e+00 8.4978871844212343e+00 1.5143492862074396e+01 -4 2 -6
213 41 8 4.0999999999999998e-01 7.9801697119335611e+00 7.9834069506042287e+00 1.1615932213432798e+01 -2 -2 -2
224 45 8 4.0999999999999998e-01 9.2384375259773233e+00 6.4672413747858810e+00 7.7669342734303859e+00 -4 0 1
184 32 7 -8.1999999999999995e-01 1.2679179813485309e+01 5.8156723930488718e+00 9.3263411853805422e+00 -4 -1 -5
177 29 8 4.0999999999999998e-01 1.4096214560149063e+01 8.4953814205915279e+00 9.3505146688715293e+00 -4 -3 -3
267 59 8 4.0999999999999998e-01 1.1432343451512496e+01 7.9380295260610438e+00 1.1673790227068206e+01 1 -5 -1
265 59 7 -8.1999999999999995e-01 1.0934369433472195e+01 8.4577028685833238e+00 1.0926143105107323e+01 1 -5 -1
276 62 8 4.0999999999999998e-01 1.2561579905214423e+01 8.1501005764677128e+00 1.3996394104066129e+01 0 -1 -3
274 62 7 -8.1999999999999995e-01 1.2548197713490318e+01 7.9305002373379381e+00 1.2972368021533329e+01 0 -1 -3
275 62 8 4.0999999999999998e-01 1.3509457228649815e+01 7.8455276101522520e+00 1.2656480356744556e+01 0 -1 -3
277 63 7 -8.1999999999999995e-01 1.0323561235713225e+01 5.2459827322875494e+00 1.1075627664721598e+01 -2 -4 3
279 63 8 4.0999999999999998e-01 9.8965548058585053e+00 5.3392400313326842e+00 1.0192406579681482e+01 -2 -4 3
211 41 7 -8.1999999999999995e-01 8.4545903054947456e+00 8.8929936789391100e+00 1.1868013086963717e+01 -2 -2 -2
176 29 8 4.0999999999999998e-01 1.2468377351744078e+01 8.7190202540479547e+00 1.0079548558027808e+01 -4 -3 -3
266 59 8 4.0999999999999998e-01 9.9414296302400977e+00 8.6565006064396623e+00 1.1116441207167462e+01 1 -5 -1
175 29 7 -8.1999999999999995e-01 1.3135125656537134e+01 8.8823015042462412e+00 9.2902977789399106e+00 -4 -3 -3
240 50 8 4.0999999999999998e-01 1.0221389916914328e+01 7.5049962475942449e+00 9.3995647387214927e+00 0 -2 -2
212 41 8 4.0999999999999998e-01 8.6557995481200916e+00 8.8957478554833926e+00 1.2915366533343402e+01 -2 -2 -2
239 50 8 4.0999999999999998e-01 1.0184862139856122e+01 8.7469986416453729e+00 8.3577046947591818e+00 0 -2 -2
289 67 7 -8.1999999999999995e-01 1.4903113908163915e+01 7.5715027833378583e+00 1.2051079743089744e+01 0 1 -4
260 57 8 4.0999999999999998e-01 1.1910493505151278e+01 9.5065059346649647e+00 1.3100924319768144e+01 -3 0 -2
253 55 7 -8.1999999999999995e-01 8.5633384818358529e+00 7.8551929681559773e+00 1.4514359372140856e+01 -4 2 -6
170 27 8 4.0999999999999998e-01 8.2688869462519126e+00 1.0257010411132834e+01 1.0730731806683702e+01 -2 -2 -2
153 21 8 4.0999999999999998e-01 1.4773233262710113e+01 9.5595153810832496e+00 1.2267900713222424e+01 -3 -5 1
85 15 2 -4.6100000000000002e-01 1.4519605676366403e+01 7.2194981683766475e+00 1.5127315671244240e+01 -2 1 0
290 67 8 4.0999999999999998e-01 1.4995602101636656e+01 6.6807620663027460e+00 1.1544253517078028e+01 0 1 -4
104 16 2 -4.6100000000000002e-01 1.5345915494421904e+01 1.0971593729063873e+01 9.2415489949179808e+00 -1 1 -2
119 17 2 -4.6100000000000002e-01 8.4443727432255695e+00 1.4962724723993800e+01 1.2972636705875127e+01 0 -2 -2
148 20 7 -8.1999999999999995e-01 1.2515140949163561e+01 1.1942659187845162e+01 1.0196509665658731e+01 -1 -1 2
269 60 8 4.0999999999999998e-01 9.8986621263199304e+00 1.0606155825202766e+01 8.6798311991953785e+00 1 1 -1
268 60 7 -8.1999999999999995e-01 1.0756424196447258e+01 1.0455479551828862e+01 8.0491781057874121e+00 1 1 -1