variable        infile index data.mol
variable        mytemp index 298

# set up simulation
#read_restart    ${NAME}.restart.*

# the following information is saved to restart files
units           real
atom_style      full
boundary        p p p
pair_style      lj/cut/coul/long 7
kspace_style    pppm 0.0001
pair_modify     tail yes
pair_modify     mix arithmetic
special_bonds   amber

bond_style      harmonic
angle_style     harmonic
dihedral_style  charmm
#improper_style  cvff

read_data       ${infile}
read_data       data.mol
  orthogonal box = (0 0 0) to (15.4361 15.394 15.438)
  2 by 1 by 2 MPI processor grid
  reading atoms ...
  294 atoms
  reading velocities ...
  294 velocities
  scanning bonds ...
  4 = max bonds/atom
  scanning angles ...
  6 = max angles/atom
  scanning dihedrals ...
  12 = max dihedrals/atom
  reading bonds ...
  226 bonds
  reading angles ...
  275 angles
  reading dihedrals ...
  270 dihedrals
  4 = max # of 1-2 neighbors
  6 = max # of 1-3 neighbors
  12 = max # of 1-4 neighbors
  14 = max # of special neighbors
  special bonds CPU = 0.000453884 secs
  read_data CPU = 0.0121996 secs

#replicate       3 4 4

neighbor        2.0 bin
neigh_modify    delay 0 every 1 check yes page 1000000 one 20000
timestep        1.0
#velocity        all create ${mytemp} 314159265 mom yes rot yes dist gaussian

## end information that is saved to restart files

## create velocity profile
#minimize       1e-4 1e-6 10000 10000
#velocity        all create  ${mytemp} 314159265 units box
velocity        all zero linear units box
dump            DUMP all custom 1000 ${NAME}.lammpstrj id type x y z mol
dump            DUMP all custom 1000 mol.lammpstrj id type x y z mol
thermo_style    custom step vol temp press ke pe etotal enthalpy evdwl ecoul epair ebond eangle edihed eimp emol elong etail lx ly lz xy xz yz pxy pxz pyz pxx pyy pzz
thermo          1000
#
## thermostat and integrator

#fix             NPT all npt temp ${mytemp} ${mytemp} 100.0 iso 1.0 1.0 100.0
fix             NVT all nvt temp ${mytemp} ${mytemp} 100.0
fix             NVT all nvt temp 298 ${mytemp} 100.0
fix             NVT all nvt temp 298 298 100.0

restart         50000 restart.${NAME}.1 restart.${NAME}.2
restart         50000 restart.mol.1 restart.${NAME}.2
restart         50000 restart.mol.1 restart.mol.2
run             10000000
PPPM initialization ...
  using 12-bit tables for long-range coulomb (src/kspace.cpp:332)
  G vector (1/distance) = 0.383154
  grid = 12 12 12
  stencil order = 5
  estimated absolute RMS force accuracy = 0.0217689
  estimated relative force accuracy = 6.55565e-05
  using double precision KISS FFT
  3d grid and FFT values/proc = 3211 432
Neighbor list info ...
  update every 1 steps, delay 0 steps, check yes
  max neighbors/atom: 20000, page size: 1000000
  master list distance cutoff = 9
  ghost atom cutoff = 9
  binsize = 4.5, bins = 4 4 4
  1 neighbor lists, perpetual/occasional/extra = 1 0 0
  (1) pair lj/cut/coul/long, perpetual
      attributes: half, newton on
      pair build: half/bin/newton
      stencil: half/bin/3d/newton
      bin: standard
Per MPI rank memory allocation (min/avg/max) = 17.93 | 17.93 | 17.94 Mbytes
Step Volume Temp Press KinEng PotEng TotEng Enthalpy E_vdwl E_coul E_pair E_bond E_angle E_dihed E_impro E_mol E_long E_tail Lx Ly Lz Xy Xz Yz Pxy Pxz Pyz Pxx Pyy Pzz 
       0    3668.4289    302.79628   -3130.8907    264.45541   -710.54225   -446.08684   -613.59034   -17.411709    4711.4246     -1351.67    103.09065    133.22647    404.81064            0    641.12776   -6045.6829   -33.444113      15.4361       15.394       15.438            0            0            0    514.24933   -839.46771   -8064.5334   -4269.2838   -8723.2986    3599.9104 
    1000    3668.4289    293.23729    1915.1912     256.1068   -724.49127   -468.38446   -365.92121  0.083382795    4679.9699   -1363.2663    109.06939     141.2503    388.45538            0    638.77507   -6043.3196   -33.444113      15.4361       15.394       15.438            0            0            0   -3316.6308     979.3917   -2112.9631    264.25249    1150.7525    4330.5687 
    2000    3668.4289     297.3312   -6335.9802    259.68233    -761.6753   -501.99297   -840.96963   -27.073452    4698.9546   -1367.7642    89.971739    113.56887    402.54825            0    606.08885   -6039.6453   -33.444113      15.4361       15.394       15.438            0            0            0    4065.4842   -1425.0409   -23.608617   -5768.9408   -8937.7526   -4301.2473 
    3000    3668.4289    295.74348   -1476.2244    258.29566   -734.71049   -476.41483   -555.39324  -0.64711097    4700.8233    -1342.004     93.64854    122.96369    390.68124            0    607.29347   -6042.1801   -33.444113      15.4361       15.394       15.438            0            0            0   -1662.0072    680.96264    1443.1799   -508.37214   -904.80229   -3015.4987 
    4000    3668.4289    318.94126    1968.1325    278.55607   -714.46962   -435.91355   -330.61792    42.128825     4664.376   -1331.8507    113.05021    115.88281    388.44806            0    617.38108   -6038.3555   -33.444113      15.4361       15.394       15.438            0            0            0    1972.1259   -5366.8474    5332.4555    1374.6873    4329.6848    200.02542 
    5000    3668.4289    308.14889   -466.77212    269.13026   -743.68128   -474.55102   -499.52345    25.818737    4684.5448    -1334.506     88.16115    111.91513    390.74841            0    590.82469   -6044.8695   -33.444113      15.4361       15.394       15.438            0            0            0    277.37429   -1649.9628    -637.8059    2579.7725    -1179.338   -2800.7508 
    6000    3668.4289    277.92336    987.36316    242.73197   -720.82752   -478.09555   -425.27135   -5.6925371    4717.7342   -1328.6306    91.399541    120.10519    396.29838            0    607.80312   -6040.6723   -33.444113      15.4361       15.394       15.438            0            0            0   -2131.2804    2174.1365   -1849.7322   -2783.0719    2790.2189    2954.9425 
    7000    3668.4289     305.2948    4261.7392    266.63756   -727.60718   -460.96962   -232.96542    5.7730337    4723.4259   -1314.2422    80.396176    105.25782    400.98102            0    586.63502   -6043.4411   -33.444113      15.4361       15.394       15.438            0            0            0   -390.71811   -1589.6027    289.94572   -2385.3876    9556.7204    5613.8847 
    8000    3668.4289    283.03659   -3720.7834    247.19774   -741.59877   -494.40103   -693.46395   -12.629213    4702.0351   -1352.7354    93.020827    121.55765    396.55817            0    611.13664   -6042.1413   -33.444113      15.4361       15.394       15.438            0            0            0    1266.1316    4405.0796    851.88744    1310.3947   -10725.086   -1747.6584 
    9000    3668.4289    286.87008    2983.9506    250.54583   -729.87817   -479.33234   -319.69017    20.604977    4687.7926   -1336.6739    90.010334    115.49287    401.29258            0    606.79578   -6045.0716   -33.444113      15.4361       15.394       15.438            0            0            0    6824.0489    441.59812    2645.2706    2920.7493    5085.6315    945.47118 
   10000    3668.4289    292.72619    -1798.724    255.66043   -715.46875   -459.80832   -556.04055    3.2035684    4719.2621   -1322.5499    104.46279    99.253149    403.36519            0    607.08113   -6045.0156   -33.444113      15.4361       15.394       15.438            0            0            0   -2309.9016   -3325.7598    2273.3924   -4137.3337   -3131.8379    1872.9997 
   11000    3668.4289    290.35754   -59.240286    253.59169   -729.33413   -475.74243    -478.9118    5.2275401    4698.8436   -1337.4175    91.622177    122.34473    394.11643            0    608.08334   -6041.4886   -33.444113      15.4361       15.394       15.438            0            0            0    1522.6446    1068.5959   -1648.4798   -829.55035   -1456.7648    2108.5943 
   12000    3668.4289    274.69614   -3694.8467    239.91338    -722.3852   -482.47182   -680.14712    13.496116    4673.8492   -1355.2782    102.26914    129.74348    400.88033            0    632.89295   -6042.6234   -33.444113      15.4361       15.394       15.438            0            0            0    1908.2988    779.03383   -1690.9002   -1377.8192   -8996.1537   -710.56714 
   13000    3668.4289    317.08319   -3096.9365    276.93327     -720.605   -443.67173   -609.35867   -2.9332864    4721.0286   -1326.6982    93.240437    113.65286    399.19992            0    606.09322   -6044.7936   -33.444113      15.4361       15.394       15.438            0            0            0    3617.0301    5433.2004    1879.3165    2435.7767   -4774.6569   -6951.9292 
   14000    3668.4289    299.93294    2232.3319    261.95463   -704.09273    -442.1381   -322.70774    14.142165    4699.3821   -1327.9484      103.469    122.34949    398.03722            0    623.85571   -6041.4728   -33.444113      15.4361       15.394       15.438            0            0            0   -3155.7301    2427.9283    2245.8467   -3526.9846    3903.7328    6320.2475 
   15000    3668.4289    305.41753    717.74235    266.74475   -752.28756   -485.54281    -447.1434   -0.2364766    4698.9027   -1346.0053    82.715863     113.2883    397.71353            0    593.71769   -6044.6714   -33.444113      15.4361       15.394       15.438            0            0            0    779.22851   -549.14383    6585.4992    4546.4171   -1102.7185   -1290.4715 
   16000    3668.4289    305.06569   -2612.9699    266.43746   -742.21599   -475.77853   -615.57313   -5.6982127    4691.5894   -1355.2162    91.220296    124.30856    397.47132            0    613.00018   -6041.1073   -33.444113      15.4361       15.394       15.438            0            0            0   -3795.4547    1872.9155   -1443.7362   -3945.1078    2633.6399   -6527.4417 
   17000    3668.4289    248.70477    4758.9489    217.21311   -721.09939   -503.88628   -249.28122    16.404501    4681.6449   -1345.6986    93.935642    131.75966    398.90389            0    624.59919    -6043.748   -33.444113      15.4361       15.394       15.438            0            0            0   -1266.0284    1396.2199   -1901.6414    8311.7169    1657.0927     4308.037 
   18000    3668.4289    298.79997    -721.7679    260.96512   -741.87528   -480.91016   -519.52494   -1.5371699    4719.7846   -1329.4305    79.828033    109.51054    398.21662            0    587.55519   -6047.6779   -33.444113      15.4361       15.394       15.438            0            0            0    1018.4272    1161.0058    2551.9191    715.99669    939.68587   -3820.9863 
   19000    3668.4289    284.51394   -3234.6106    248.48803   -720.24573    -471.7577   -644.81025   -21.393327    4720.5956   -1345.1945    94.898193    135.47426    394.57628            0    624.94874   -6044.3968   -33.444113      15.4361       15.394       15.438            0            0            0    2555.6725   -803.77538   -3515.3713   -3515.2333   -4723.2171   -1465.3815 
   20000    3668.4289    291.36713   -2382.3277    254.47345   -731.42831   -476.95487   -604.41005   -1.6095153    4687.4241   -1356.3614    96.654533    123.14341    405.13519            0    624.93313    -6042.176   -33.444113      15.4361       15.394       15.438            0            0            0   -566.10006   -4978.0925   -772.79696   -3022.5713   -654.39592    -3470.016 
   21000    3668.4289    275.29107    1025.1211    240.43298   -730.19576   -489.76278   -434.91852   -4.3649742    4704.4857   -1341.4205     84.75346    133.72357     392.7477            0    611.22473   -6041.5412   -33.444113      15.4361       15.394       15.438            0            0            0    3279.1885     2024.553    -4482.754    3459.0498   -667.96913    284.28273 
   22000    3668.4289    298.68402   -4562.1632    260.86386   -712.34805   -451.48419   -695.56116   -4.9546934    4708.0229   -1341.4497    106.37088    119.82328    402.90752            0    629.10168   -6044.5179   -33.444113      15.4361       15.394       15.438            0            0            0    3561.9128   -2664.0727    2211.9005    -10926.84   -3491.6126    731.96344 
   23000    3668.4289    312.07877   -161.87643    272.56253   -737.95491   -465.39238   -474.05281   -20.764336    4730.6251   -1330.1433    80.687075    112.71025     398.7911            0    592.18843   -6040.0041   -33.444113      15.4361       15.394       15.438            0            0            0    571.53411    2087.3807     -1287.04   -1976.2666   -2595.8438     4086.481 
   24000    3668.4289     273.1772     -1087.83    238.58678   -714.09698    -475.5102    -533.7094    1.1025702    4713.0831   -1330.3977    88.589427    134.38071    393.33054            0    616.30068   -6044.5833   -33.444113      15.4361       15.394       15.438            0            0            0    3897.2115    281.87045    2502.6301    3577.6602    2628.3341   -9469.4844 
   25000    3668.4289      303.137    1067.6851    264.75299   -713.42478   -448.67179   -391.55034   -4.8056195     4711.365   -1336.7664    88.437099    130.66067    404.24389            0    623.34166   -6043.3259   -33.444113      15.4361       15.394       15.438            0            0            0    232.43063    161.08526     2918.121   -929.73607    5464.7454    -1331.954 
   26000    3668.4289    294.83172    1697.1116    257.49935   -706.70831   -449.20896   -358.41303   -3.5865445    4731.6339   -1313.0564    81.362519    120.13788    404.84771            0    606.34811   -6041.1037   -33.444113      15.4361       15.394       15.438            0            0            0   -345.16015     976.4013     4441.644    2095.0609    4655.9608   -1659.6869 
   27000    3668.4289    288.84191   -1704.6038    252.26798   -721.57857   -469.31059   -560.50736   -15.227003    4735.6926   -1322.2889    81.762226    117.72758    401.22053            0    600.71033   -6042.7545   -33.444113      15.4361       15.394       15.438            0            0            0   -2328.3199   -2854.2289   -2721.1351    1486.4352   -7989.0579    1388.8112 
   28000    3668.4289    281.28057    2607.3361    245.66408   -713.94312   -468.27904   -328.78585    5.8119605     4707.697   -1331.7129    84.750012    126.93903    406.08072            0    617.76976   -6045.2219   -33.444113      15.4361       15.394       15.438            0            0            0   -804.16247   -197.09831   -1916.4771    2261.6336    1593.1737    3967.2011 
   29000    3668.4289    286.51705     2331.581     250.2375   -737.18302   -486.94551    -362.2053    0.3041381    4699.9791   -1340.3377    73.094086    127.26172    402.79888            0    603.15468   -6040.6209   -33.444113      15.4361       15.394       15.438            0            0            0   -852.56582    3200.9673   -2106.4297     5921.931   -1486.3714    2559.1834 
   30000    3668.4289    297.14556    1184.9272     259.5202   -698.12582   -438.60562   -375.21169    22.541455      4688.55   -1329.5753    98.858687    138.08513     394.5057            0    631.44951   -6040.6668   -33.444113      15.4361       15.394       15.438            0            0            0   -544.46274    2518.8061    1982.5524    6781.8837   -3796.2402    569.13815 
   31000    3668.4289       289.88    2844.3063    253.17463   -743.41509   -490.24047   -338.06931    15.760689    4681.7842   -1343.8343    80.872674     115.3015    404.24502            0     600.4192   -6041.3792   -33.444113      15.4361       15.394       15.438            0            0            0   -4417.7241   -845.49086    1154.3492     1853.665    2803.3434    3875.9105 
   32000    3668.4289    313.36787    1742.3071     273.6884   -734.90437   -461.21597   -368.00207   -3.1978454    4716.7614    -1327.371    93.905778    103.19937    395.36149            0    592.46663   -6040.9346   -33.444113      15.4361       15.394       15.438            0            0            0   -593.59369    526.03265    2234.9527    28.274904    183.84376    5014.8027 
   33000    3668.4289    304.44239    1597.4195    265.89309   -741.16232   -475.26923   -389.80685    3.8542928    4697.0557   -1344.3828     95.89876    107.49635    399.82534            0    603.22044   -6045.2928   -33.444113      15.4361       15.394       15.438            0            0            0   -3238.0155     5576.309   -3795.4954     4958.689   -1829.8749    1663.4443 
   34000    3668.4289     298.3825   -2015.7496    260.60052    -738.0684   -477.46788   -585.31103   -10.380339    4718.4217    -1334.953     93.37316    108.08119    395.43024            0    596.88458   -6042.9944   -33.444113      15.4361       15.394       15.438            0            0            0   -101.12764   -1556.2096   -3451.8904    -2854.405    -7901.548    4708.7041 
   35000    3668.4289    326.86175    2683.6098    285.47364   -722.56298   -437.08933   -293.51548  -0.42065144    4716.8907   -1326.8865    84.849914    121.59984    397.87378            0    604.32353   -6043.3565   -33.444113      15.4361       15.394       15.438            0            0            0   -691.17502    -1273.274    2900.5646    1368.0282    2156.7509    4526.0502 
   36000    3668.4289    308.69904    3126.5955    269.61075   -719.55834   -449.94759   -282.67388    -10.25991    4744.3713    -1314.141     83.47334    108.01593    403.09343            0     594.5827   -6048.2524   -33.444113      15.4361       15.394       15.438            0            0            0    1529.6261   -2061.5619    3039.2422    999.23933    1689.8655    6690.6817 
   37000    3668.4289    299.70184    206.34957    261.75279   -732.54128   -470.78849   -459.74873   -9.6669061    4714.4534   -1335.5496    84.513715     119.8515    398.64308            0    603.00829    -6040.336   -33.444113      15.4361       15.394       15.438            0            0            0   -995.20555      981.534   -468.93855    3772.7573    1190.1764   -4343.8849 
   38000    3668.4289    285.62715   -6850.4499    249.46028   -740.58352   -491.12324   -857.62418    1.4492304    4702.1839   -1339.9266    97.423913    106.07251    395.84662            0    599.34304   -6043.5596   -33.444113      15.4361       15.394       15.438            0            0            0    3544.8852   -3404.3238    579.52038   -4374.2561    -12914.51   -3262.5834 
   39000    3668.4289    305.90515    1112.2046    267.17063   -717.37989   -450.20927   -390.70602    5.0544986    4695.4836   -1344.4771    90.542949    136.56689    399.98734            0    627.09717   -6045.0151   -33.444113      15.4361       15.394       15.438            0            0            0   -372.52142   -38.350002    4478.6443    697.21513     3424.751   -785.35225 
   40000    3668.4289    300.80499   -77.865174    262.71627   -732.89457    -470.1783   -474.34411    9.3195855    4670.2304   -1360.5639    97.012988     128.0756    402.58078            0    627.66937    -6040.114   -33.444113      15.4361       15.394       15.438            0            0            0    -388.5126     6485.588   -4697.0063   -259.44941    5780.4716   -5754.6177 
   41000    3668.4289    292.47789    -350.2936    255.44356   -742.17571   -486.73215   -505.47295     22.95096    4667.1793   -1354.3982    99.596006    112.26441    400.36213            0    612.22254   -6044.5285   -33.444113      15.4361       15.394       15.438            0            0            0     4138.582   -5069.3248   -1949.3997   -2895.6486    840.48492    1004.2829 
   42000    3668.4289    326.92744    7258.4321    285.53102   -738.40539   -452.87437   -64.546274    4.8978273    4710.1492   -1328.2536    76.448714    114.06943    399.33008            0    589.84822   -6043.3007   -33.444113      15.4361       15.394       15.438            0            0            0    57.766478   -1098.8049   -2103.8876    5997.4134    7453.8522    8324.0307 
   43000    3668.4289    280.14702   -2419.2814    244.67406   -740.14737   -495.47331   -624.90553      6.63335    4689.2594     -1347.97    102.22181    106.67309    398.92776            0    607.82266   -6043.8628   -33.444113      15.4361       15.394       15.438            0            0            0   -339.51784   -874.38068   -562.98142   -645.05854   -2287.7482   -4325.0374 
   44000    3668.4289    294.21975    214.39459    256.96486   -749.81446    -492.8496   -481.37943   -7.9558421    4696.7556   -1358.4583    93.035397    114.62728    400.98113            0    608.64381    -6047.258   -33.444113      15.4361       15.394       15.438            0            0            0    2801.7829    307.63852   -1122.4091   -3380.5566    1855.2549    2168.4855 
   45000    3668.4289    284.25209    312.31902    248.25933   -717.98618   -469.72684   -453.01769    13.875277     4702.322   -1327.8443    99.475541    111.08781    399.29476            0    609.85812   -6044.0416   -33.444113      15.4361       15.394       15.438            0            0            0    987.74799   -1276.4734    4712.7287   -2900.1479    2482.7398    1354.3651 
   46000    3668.4289    293.93286    3372.8357     256.7143   -733.24701   -476.53271   -296.08508    20.088417    4690.1149   -1334.0198    93.151426    105.76342    401.85794            0    600.77279   -6044.2231   -33.444113      15.4361       15.394       15.438            0            0            0   -2678.7713    2519.4441     3204.126    1039.2748     3451.088    5628.1443 
   47000    3668.4289    288.74511   -4111.7034    252.18344   -708.56375   -456.38032   -676.35757   -17.776363    4736.4238   -1323.8927    97.683907    115.32344    402.32157            0    615.32893   -6042.5401   -33.444113      15.4361       15.394       15.438            0            0            0   -5669.9097   -787.31863   -307.57025   -1818.9168   -2868.0607   -7648.1327 
   48000    3668.4289    299.49463    613.40008    261.57183    -683.3397   -421.76788    -388.9508    -4.299958    4735.3922   -1310.1411    99.991433    126.94173    399.86823            0    626.80139   -6041.2334   -33.444113      15.4361       15.394       15.438            0            0            0     -3508.99    2125.1286    2858.1354    1261.0241    1207.1809   -628.00479 
   49000    3668.4289     286.3953   -3295.3504    250.13116   -709.98001   -459.84884   -636.15098   -11.252428    4724.9479    -1324.163    100.68279    104.96292    408.53727            0    614.18298   -6037.8585   -33.444113      15.4361       15.394       15.438            0            0            0    558.36575   -756.90435    2265.8294   -3785.8486   -7037.0699     936.8675 
   50000    3668.4289     278.5442    846.06047     243.2742   -733.99788   -490.72368   -445.45921   -25.752886    4729.9959   -1339.0459    88.602892     112.2216    404.22352            0    605.04801   -6043.2889   -33.444113      15.4361       15.394       15.438            0            0            0    2609.4997   -654.19253   -617.94006    1223.1585   -3206.8071      4521.83 
   51000    3668.4289    300.37487    -5131.791    262.34061   -723.43223   -461.09162   -735.64383   -16.045437    4722.2077   -1335.5743    105.58241    112.10659    394.45308            0    612.14208   -6041.7365   -33.444113      15.4361       15.394       15.438            0            0            0    -856.6004    2201.0342   -2017.7032    2145.7027   -8126.0958   -9414.9798 
   52000    3668.4289    304.20957      484.149    265.68975   -725.22942   -459.53967   -433.63757   -3.4095446    4708.4612   -1340.3532    100.60332    112.86177    401.65869            0    615.12378   -6045.4049   -33.444113      15.4361       15.394       15.438            0            0            0   -76.980399   -2110.1752   -851.13469    5338.1921   -4227.8907    342.14555 
   53000    3668.4289    294.85242    2540.6847    257.51742   -717.14781   -459.63039   -323.70307   -3.0315489    4734.7506   -1311.1459    89.647787    102.24929    402.10099            0    593.99806   -6042.8649   -33.444113      15.4361       15.394       15.438            0            0            0     9.227406   -4822.7709    1202.4657    2921.1335    1521.9305      3178.99 
   54000    3668.4289    282.43094   -4512.4297    246.66879   -751.66502   -504.99623   -746.41245  -0.84418251    4691.6696   -1354.7956    84.028299    119.24809    399.85417            0    603.13056    -6045.621   -33.444113      15.4361       15.394       15.438            0            0            0   -5343.7148   -1035.8877    1402.8195   -6173.7307   -2967.8252   -4395.7333 
   55000    3668.4289    303.38126   -1943.7126    264.96632   -741.20269   -476.23638   -580.22553   -16.822814    4704.6827   -1353.7768    93.851379     114.4668    404.25597            0    612.57415   -6041.6368   -33.444113      15.4361       15.394       15.438            0            0            0   -3790.3933    1649.4123   -1775.5959    1812.0921   -1280.4585   -6362.7714 
   56000    3668.4289    290.10917    715.32844    253.37478   -732.13797   -478.76319   -440.49293    24.425986    4646.4369   -1370.8495    94.385393    142.59612    401.73005            0    638.71157   -6041.7124   -33.444113      15.4361       15.394       15.438            0            0            0    1393.6943   -721.32332    363.64641    2032.3772   -1659.4341    1773.0423 
   57000    3668.4289    286.81807    -2016.779    250.50041   -735.80339   -485.30298   -593.20121    17.693568    4689.7493   -1334.4689    92.502098    108.21542    397.94799            0    598.66551   -6041.9117   -33.444113      15.4361       15.394       15.438            0            0            0    4502.4904   -208.87536    2207.1348   -1948.7683   -1502.1665   -2599.4024 
   58000    3668.4289    294.24996    3991.9242    256.99125   -749.81365    -492.8224   -279.25337    3.5862917    4711.9238   -1330.9506    83.029019    96.165692    401.94222            0    581.13693   -6046.4607   -33.444113      15.4361       15.394       15.438            0            0            0    -2850.968      -383.61    -640.7305    3648.9054    3170.6759    5156.1914 
   59000    3668.4289    293.86322    94.314311    256.65348   -734.71362   -478.06014    -473.0143    3.1583783    4694.6335   -1348.8778    91.680021    125.02988    397.45427            0    614.16417   -6046.6697   -33.444113      15.4361       15.394       15.438            0            0            0    2136.0871    2090.3961   -759.53283    5878.4285   -3556.1053   -2039.3803 
   60000    3668.4289    303.65159   -2435.7233    265.20242   -748.80365   -483.60123   -613.91309   -6.1431468    4672.4979   -1376.4436    97.388091    131.42389      398.828            0    627.63998   -6042.7984   -33.444113      15.4361       15.394       15.438            0            0            0    4339.9595   -659.48311   -2183.1556   -1929.1019   -5556.9197    178.85173 
   61000    3668.4289    304.94293   -7329.6853    266.33025   -742.80317   -476.47292   -868.61308   -33.717656    4723.1097   -1353.5003    93.574146    118.72301    398.40001            0    610.69716   -6042.8924   -33.444113      15.4361       15.394       15.438            0            0            0    1178.0503   -961.25376    -1557.413     -8248.52   -6160.4885   -7580.0473 
   62000    3668.4289    288.24268    1543.7244    251.74463   -722.06659   -470.32196   -387.73229   -11.159874    4734.2194   -1319.1043    96.971908     99.43051    400.63529            0     597.0377   -6042.1638   -33.444113      15.4361       15.394       15.438            0            0            0   -1818.1342    3577.7132   -2855.3134    4641.6922    6960.2612   -6970.7804 
   63000    3668.4289    322.55224   -5424.3311    281.70982   -742.29906   -460.58924   -750.79243    1.0251876    4691.1636   -1352.3178    82.282923    126.95492    400.78085            0    610.01869   -6044.5066   -33.444113      15.4361       15.394       15.438            0            0            0    250.70462   -103.57378    1418.7755   -627.81578   -9955.7865   -5689.3909 
   64000    3668.4289    283.98362    4755.4848    248.02486   -724.40311   -476.37825   -221.95852    11.821535    4698.1635   -1330.9224    80.082879    125.67513    400.76132            0    606.51934   -6040.9075   -33.444113      15.4361       15.394       15.438            0            0            0    2220.2196    709.13255    1563.6423    1218.0417    8734.4183    4313.9943 
   65000    3668.4289    290.55283    2188.6812    253.76226   -719.87108   -466.10882   -349.01377    12.814424    4700.2856   -1327.8162    86.356211    120.93513    400.65374            0    607.94508   -6040.9162   -33.444113      15.4361       15.394       15.438            0            0            0    465.19096    1674.9736   -6538.8205    7140.8163   -3379.2043    2804.4317 
   66000    3668.4289    297.97392   -2459.3944    260.24367   -717.19702   -456.95335   -588.53162    5.9484542    4714.0732   -1323.4378    88.857819    121.66505    395.71793            0     606.2408   -6043.4594   -33.444113      15.4361       15.394       15.438            0            0            0   -26.067715    908.05879    2586.8216    1954.4971   -3437.0569   -5895.6233 
   67000    3668.4289    288.42401   -3604.9106      251.903    -737.9358   -486.03281    -678.8965    7.2710601    4675.0221   -1360.9529    103.92412    119.23933    399.85368            0    623.01713   -6043.2461   -33.444113      15.4361       15.394       15.438            0            0            0    731.85933   -1793.6406   -377.03968   -5196.3922   -4469.8809   -1148.4586 
   68000    3668.4289    320.90356   -1608.3328     280.2699   -724.24076   -443.97086    -530.0171   -16.968529    4714.6985   -1343.6452    87.017448    126.67978     405.7072            0    619.40442   -6041.3752   -33.444113      15.4361       15.394       15.438            0            0            0   -933.18097   -1093.0032   -1872.7337   -4531.3113   -181.63701   -112.04997 
   69000    3668.4289    305.79894   -2958.8396    267.07786   -750.40972   -483.33186   -641.63058   0.61345151    4691.6087   -1349.0714     89.56563    108.76638    400.32966            0    598.66167   -6041.2936   -33.444113      15.4361       15.394       15.438            0            0            0   -5232.0602    4834.0309    3283.2057   -4842.6923   -1705.0814    -2328.745 
   70000    3668.4289    303.06096    402.79543    264.68657   -751.57522   -486.88865   -465.33899    4.2524349    4702.7437   -1333.8386    85.133997    97.626461    399.50292            0    582.26338   -6040.8347   -33.444113      15.4361       15.394       15.438            0            0            0    2314.6888   -215.98833     2181.259   -5394.8404    6244.8293    358.39735 
   71000    3668.4289    299.15979    501.41886    261.27939   -725.58929    -464.3099   -437.48386   -4.2008725    4731.5141   -1316.3857    78.350056    110.73547    401.71089            0    590.79641   -6043.6989   -33.444113      15.4361       15.394       15.438            0            0            0    1788.0849   -5909.8139    1378.3588   -2908.3255    974.68255    3437.8996 
   72000    3668.4289    305.77769   -570.40844    267.05931   -751.05074   -483.99144   -514.50844    30.935655    4660.0165   -1350.9708    80.960296    116.96282    401.99693            0    599.92005   -6041.9229   -33.444113      15.4361       15.394       15.438            0            0            0    412.22462    1404.3321    3965.5986   -2000.8183   -4536.2582    4825.8512 
   73000    3668.4289    282.63238    354.44207    246.84471   -717.39298   -470.54827   -451.58552     10.49448    4705.1851   -1328.4206    94.054658     113.2388     403.7342            0    611.02766   -6044.1002   -33.444113      15.4361       15.394       15.438            0            0            0     2187.537   -2338.9211     5156.432     2879.031   -2672.5792     856.8744 
   74000    3668.4289    313.68506    2866.1578    273.96542   -704.53317   -430.56775   -277.22753   -4.4448735    4727.8528   -1319.7653    80.257604    132.38621    402.58827            0    615.23209   -6043.1732   -33.444113      15.4361       15.394       15.438            0            0            0   -2485.4334   -3287.1774    2247.9893    5090.8682    1878.5877    1629.0176 
   75000    3668.4289    317.87483    120.52496    277.62467   -720.53775   -442.91307   -436.46496   -21.570671    4721.8697    -1340.778    88.949676    127.82417    403.46639            0    620.24023    -6041.077   -33.444113      15.4361       15.394       15.438            0            0            0    860.23927    1782.4464   -264.76083    2034.2364    1934.5763   -3607.2378 
   76000    3668.4289    299.79457    -2258.205    261.83378   -743.67279   -481.83901   -602.65359   -8.7814357    4711.1626    -1338.517    89.725454    108.61053    396.50821            0    594.84419   -6040.8981   -33.444113      15.4361       15.394       15.438            0            0            0    5492.9182   -676.19769   -2783.1184   -6004.7598   -3497.9856    2728.1304 
   77000    3668.4289    299.93391    1833.6304    261.95548   -759.66743   -497.71195   -399.61222    3.2718231    4691.1836    -1348.309    78.262151     107.4321    402.94729            0    588.64154   -6042.7644   -33.444113      15.4361       15.394       15.438            0            0            0   -1877.3912    3856.2182    3.1786758    1652.6057    1029.8967    2818.3887 
   78000    3668.4289    286.04464    2819.0796    249.82491   -722.04879   -472.22388   -321.40236    7.1046557    4717.8429   -1318.1406    83.284051    109.50175    403.30598            0    596.09178   -6043.0882   -33.444113      15.4361       15.394       15.438            0            0            0   -425.68827    1443.9697   -2593.4418   -84.334387     3106.568    5435.0051 
   79000    3668.4289    277.18926    -4096.649    242.09082   -729.58211   -487.49129   -706.66312    6.0122099    4686.7088   -1346.6334    94.936386     118.7261    403.38882            0    617.05131   -6039.3544   -33.444113      15.4361       15.394       15.438            0            0            0   -188.66443   -2597.9237   -878.73073   -2931.7851   -848.81908    -8509.343 
   80000    3668.4289     310.5777    -1297.099    271.25153   -740.48017   -469.22864   -538.62378   -22.432272    4705.7019   -1359.0929       88.218    122.29182    408.10293            0    618.61275   -6042.3626   -33.444113      15.4361       15.394       15.438            0            0            0    161.00136    3106.9859    418.02329   -4738.4659    1936.2231   -1089.0541 
   81000    3668.4289    292.87851   -4905.9038    255.79346   -740.50804   -484.71458   -747.18178   -4.6402351     4683.997   -1364.6775    85.847205    135.48772    402.83454            0    624.16946   -6044.0342   -33.444113      15.4361       15.394       15.438            0            0            0   -2112.0728   -1610.9612    3374.4779   -6588.4171   -7558.3292   -570.96519 
   82000    3668.4289    315.13913    1621.4657    275.23538   -726.74438     -451.509   -364.76014     10.39139    4683.4234    -1350.582    87.240056    133.75243    402.84511            0     623.8376   -6044.3968   -33.444113      15.4361       15.394       15.438            0            0            0    319.93572    422.87732    1018.2374    482.24932    2705.7775    1676.3704 
   83000    3668.4289    301.02441   -2974.0376     262.9079   -720.62761   -457.71971   -616.83153   -18.210653    4738.4875   -1320.0423    89.404413    106.28476    403.72551            0    599.41468   -6040.3191   -33.444113      15.4361       15.394       15.438            0            0            0    394.33892   -1618.7792    694.30818   -157.68636   -4818.7306   -3945.6957 
   84000    3668.4289    294.61709   -4474.4407    257.31189   -729.68423   -472.37234   -711.75613    13.518131    4699.1395   -1330.4242    103.37189    95.568302    401.79975            0    600.73993   -6043.0818   -33.444113      15.4361       15.394       15.438            0            0            0    4181.1508    2027.3956   -257.44907   -4350.3314   -3371.1221   -5701.8685 
   85000    3668.4289    267.85198    197.18866    233.93585   -722.18186   -488.24601   -477.69636   -2.1386472    4699.1548   -1342.7923    94.336173    130.79704     395.4772            0    620.61042   -6039.8084   -33.444113      15.4361       15.394       15.438            0            0            0    1117.6456    2828.7304    4072.9053    3060.6991   -3970.7298    1501.5967 
   86000    3668.4289    290.20659   -1851.3432    253.45986   -718.64376    -465.1839   -564.23126   -1.5070913    4701.7476   -1339.7869     104.5744    118.92934    397.63942            0    621.14316   -6040.0274   -33.444113      15.4361       15.394       15.438            0            0            0    4590.6835    754.78555    1172.6979   -2426.7402   -1748.2551   -1379.0343 
   87000    3668.4289     306.3345   -2990.9393    267.54561   -750.21699   -482.67138   -642.68744    5.5582032    4684.3658    -1352.377    81.772127    117.57919    402.80872            0    602.16004    -6042.301   -33.444113      15.4361       15.394       15.438            0            0            0    2218.4925   -3902.0762    1455.3369    26.021277   -815.80833   -8183.0307 
   88000    3668.4289     322.2183   -4750.0484    281.41817    -718.4418   -437.02364   -691.15252   0.35674044    4711.0389    -1332.574    100.44233     108.5912    405.09867            0     614.1322   -6043.9697   -33.444113      15.4361       15.394       15.438            0            0            0   -2566.5013    3870.1442    2944.7471    53.279807   -5661.3234   -8642.1017 
   89000    3668.4289      299.291   -10002.964    261.39398   -746.09952   -484.70554   -1019.8668   -11.920643    4683.0485   -1367.2021    107.76968    106.08004    407.25281            0    621.10253     -6038.33   -33.444113      15.4361       15.394       15.438            0            0            0   -290.77546    3087.9235    1811.6645   -9268.6535   -8956.4514   -11783.787 
   90000    3668.4289    324.60891   -1021.5938    283.50607   -726.75762   -443.25155    -497.9071    25.331366    4664.4451   -1350.3756    96.356148    126.18885    401.07295            0    623.61795    -6040.152   -33.444113      15.4361       15.394       15.438            0            0            0    2554.2411   -3820.1447   -941.73303   -4324.3642   -1629.3028    2888.8856 
   91000    3668.4289    285.17772    1142.3229    249.06776   -739.97655   -490.90879    -429.7942    21.943379     4687.497   -1330.5599    82.466788    108.22351    399.89301            0    590.58331   -6040.0002   -33.444113      15.4361       15.394       15.438            0            0            0    -2158.804   -1105.2247   -380.67493    1029.3497   -996.67744    3394.2964 
   92000    3668.4289    302.16723    -1530.557    263.90601   -733.94915   -470.04314   -551.92835   -7.6630898    4705.1602   -1344.3277    90.148659     118.3929    401.83695            0    610.37851   -6041.8247   -33.444113      15.4361       15.394       15.438            0            0            0    3645.2137   -2650.4364   -1503.3561    526.01011   -1713.0431    -3404.638 
   93000    3668.4289    302.59965    2702.3315    264.28368   -756.14882   -491.86514   -347.28968    26.323706    4671.3091   -1342.4067    70.795577    119.28345    396.17881            0    586.25784   -6040.0395   -33.444113      15.4361       15.394       15.438            0            0            0    5176.4984    2721.0226   -446.58712    616.20475    6984.5972    506.19237 
   94000    3668.4289    312.08318   -421.55603    272.56637    -718.1201   -445.55373   -468.10709    20.829898    4679.3833   -1338.4329    93.775353    124.15713    402.38036            0    620.31284   -6038.6462   -33.444113      15.4361       15.394       15.438            0            0            0    -3289.268    217.08073   -3314.9318     3179.998    3056.1754   -7500.8415 
   95000    3668.4289    298.55462    1173.6444    260.75084   -751.26684     -490.516   -427.72571    9.3350028    4674.6847   -1362.3523    85.655341      125.885    399.54516            0    611.08551    -6046.372   -33.444113      15.4361       15.394       15.438            0            0            0    2206.6825   -2738.2411   -2479.3408      1633.87   -1286.9115    3173.9747 
   96000    3668.4289    253.20584    2524.4603    221.14424   -735.70634    -514.5621   -379.50278   -2.1237608    4711.5507   -1332.8995     80.19293    116.29061     400.7096            0    597.19313   -6042.3264   -33.444113      15.4361       15.394       15.438            0            0            0    334.09675   -2498.9154     95.21082    4052.4592    1813.7063    1707.2154 
   97000    3668.4289     298.7975   -643.24971    260.96297   -719.91416   -458.95119   -493.36523  -0.34831967    4714.3238   -1330.2434    96.748258     111.9528    401.62821            0    610.32927   -6044.2189   -33.444113      15.4361       15.394       15.438            0            0            0   -4703.5637   -957.48792    1391.6164   -4579.3076    6196.4503   -3546.8918 
   98000    3668.4289     271.2489   -404.43381    236.90264   -761.11284    -524.2102   -545.84752   -5.3744353    4706.8488   -1345.0697    80.673997    107.35631    395.92655            0    583.95686    -6046.544   -33.444113      15.4361       15.394       15.438            0            0            0    3832.1676     800.3238    1473.3218   -591.62741   -542.40688   -79.267141 
   99000    3668.4289     305.6134   -1434.3054    266.91582   -727.98966   -461.07384   -537.80957  0.041946776    4704.9294    -1329.937    90.574201    101.82582    409.54732            0    601.94734   -6034.9083   -33.444113      15.4361       15.394       15.438            0            0            0    502.54121   -5805.3663    1473.6216   -399.04757   -452.78399   -3451.0848 
  100000    3668.4289    304.19384   -4486.1443    265.67601   -716.51925   -450.84325   -690.85319    -9.234622    4705.0744   -1343.0445     96.03323    128.10275    402.38931            0    626.52529   -6038.8843   -33.444113      15.4361       15.394       15.438            0            0            0    2062.2559   -2339.6576   -3371.8085    -1922.435    1693.9893   -13229.987 
  101000    3668.4289    336.72339   -2666.5854    294.08658   -728.39469   -434.30811   -576.97116  -0.54076053    4690.8888    -1351.094    94.910104    123.97157     403.8176            0    622.69927    -6041.442   -33.444113      15.4361       15.394       15.438            0            0            0    1290.6494   -462.97004   -45.969169   -6007.7791   -2247.1319     255.1549 
  102000    3668.4289     301.3417    2220.8763    263.18501   -752.48066   -489.29565   -370.47816    4.8764026    4693.3105   -1343.4462    86.809154    106.29819    397.85817            0    590.96552   -6041.6331   -33.444113      15.4361       15.394       15.438            0            0            0    2374.6545   -1494.9302   -411.31365   -689.88671    6526.9497    825.56599 
  103000    3668.4289    273.14537      3981.31    238.55898   -714.87032   -476.31134   -263.31018    18.657703    4713.3028   -1310.5306    82.572563     111.9933    401.09444            0    595.66031   -6042.4912   -33.444113      15.4361       15.394       15.438            0            0            0    1412.7857    524.79729     343.6645    2144.7811    7292.2741    2506.8749 
  104000    3668.4289    290.76013    1721.8181    253.94331   -748.47352   -494.53021   -402.41247    7.9557725    4709.2606   -1328.1546    80.967989    100.87897    397.83408            0    579.68104   -6045.3709   -33.444113      15.4361       15.394       15.438            0            0            0    -676.8646    276.28087   -1006.3601    7218.4932   -2393.9046    340.86564 
  105000    3668.4289    308.18137   -3134.6971    269.15862   -721.27645   -452.11783   -619.82498    2.3652925    4709.5267   -1331.8717    90.060443    113.51128    407.02352            0    610.59525   -6043.7637   -33.444113      15.4361       15.394       15.438            0            0            0    66.023193    1767.6687    1518.5377   -6869.9092   -2627.1909    93.008835 
  106000    3668.4289    305.40341   -1292.2341    266.73242   -720.05482    -453.3224   -522.45728   -6.9343819    4728.0384    -1318.466    82.870375    117.46661    398.07417            0    598.41115     -6039.57   -33.444113      15.4361       15.394       15.438            0            0            0   -1239.9901   -1794.6791   -2591.4278   -5516.4666   -4864.2145    6503.9786 
  107000    3668.4289    285.98229   -3466.6714    249.77045   -711.71851   -461.94806   -647.41592   -25.193237    4749.1006   -1318.5932     80.82103    120.62973    405.42394            0     606.8747   -6042.5005   -33.444113      15.4361       15.394       15.438            0            0            0    2242.9665    6988.2765   -2063.6586   -686.47813   -3791.7882   -5921.7478 
  108000    3668.4289    313.94951     1772.148    274.19639   -712.52347   -438.32708   -343.51668   -16.050157    4746.3652   -1315.9754    93.609457    111.96053    397.88195            0    603.45194   -6046.2905   -33.444113      15.4361       15.394       15.438            0            0            0    4592.2043    2713.6145   -436.55301    419.82621    3025.1398     1871.478 
  109000    3668.4289    318.77786   -981.58506    278.41336   -712.15267   -433.73931   -486.25438   -20.072613    4760.4882   -1304.6766    83.538239    109.17135    399.81438            0    592.52397   -6045.0922   -33.444113      15.4361       15.394       15.438            0            0            0   -404.05684    4827.5088   -2640.2228   -3284.2048   -1421.9596    1761.4092 
  110000    3668.4289    314.52728   -1082.1443      274.701   -749.21448   -474.51348    -532.4085   -4.9064136    4694.8331    -1353.354    77.874286    128.53001    397.73527            0    604.13956   -6043.2808   -33.444113      15.4361       15.394       15.438            0            0            0    4043.3136   -1507.3887    797.58704      -287.46   -2713.7054   -245.26751 
  111000    3668.4289     294.8595    5185.6608    257.52361   -719.92369   -462.40008   -184.96581    27.890987    4689.3184   -1326.2342    98.185464    110.07247    398.05261            0    606.31055   -6043.4436   -33.444113      15.4361       15.394       15.438            0            0            0   -1046.8456      659.606    3593.8602    7304.6441    10583.113    -2330.775 
  112000    3668.4289    294.66411    1544.1584    257.35296   -749.43504   -492.08207   -409.46918    29.212572    4678.3597   -1337.6646    74.576469    116.94409    396.70899            0    588.22955   -6045.2369   -33.444113      15.4361       15.394       15.438            0            0            0    858.23494   -2973.6524    -2220.783    5574.7227   -1353.8448    411.59715 
  113000    3668.4289    314.30032    2302.8969    274.50278   -724.06051   -449.55773   -326.35212     5.725258     4711.065   -1327.0868    81.884843    120.17574    400.96571            0    603.02629    -6043.877   -33.444113      15.4361       15.394       15.438            0            0            0   -754.20043   -2236.1219   -1850.4007    2761.3184   -1561.0201    5708.3924 
  114000    3668.4289    294.10421   -3352.4961    256.86396   -720.53845   -463.67449   -643.03394    -5.398911     4722.851   -1325.2311    86.391762    119.63663    398.66426            0    604.69266   -6042.6832   -33.444113      15.4361       15.394       15.438            0            0            0    -2500.486   -1860.4232    3586.3126   -2005.2912   -2949.2273   -5102.9699 
  115000    3668.4289    298.24237    1944.9833    260.47813   -698.55934   -438.08121   -334.02408    0.9917637    4722.2218   -1316.7529    97.854342    115.22339    405.11584            0    618.19357   -6039.9664   -33.444113      15.4361       15.394       15.438            0            0            0    431.86569    77.048233   -1321.1374    3751.2513   -77.233535    2160.9321 
  116000    3668.4289    300.47589    -1806.039    262.42884   -737.13425   -474.70541   -571.32899   -4.8187748     4709.842   -1339.5114    93.679732     107.3363    401.36109            0    602.37713   -6044.5346   -33.444113      15.4361       15.394       15.438            0            0            0    5211.8068    570.65931    3752.1395    799.81568   -2432.1755   -3785.7573 
  117000    3668.4289    289.88933    2953.0681    253.18278   -697.98681   -444.80404   -286.81409    3.9559062    4722.6468   -1315.6652    95.299922    122.91546    399.46303            0    617.67841    -6042.268   -33.444113      15.4361       15.394       15.438            0            0            0    919.44584   -995.59799   -4112.9355    205.11741    1451.1683    7202.9187 
  118000    3668.4289    249.67506    420.21572    218.06054   -761.20925   -543.14871   -520.66706    -6.021357    4714.9435   -1333.9163    72.981935    101.64836    398.07673            0    572.70703   -6042.8385   -33.444113      15.4361       15.394       15.438            0            0            0    655.55646    957.43485     1511.046    1937.7821    1071.3839   -1748.5189 
  119000    3668.4289    297.75664   -1784.0301     260.0539   -713.85686   -453.80296   -549.24906    16.306214    4698.4528   -1328.8647    80.481854    141.80394    392.72201            0     615.0078   -6043.6236   -33.444113      15.4361       15.394       15.438            0            0            0   -5136.8168   -1802.2387    5283.0274   -2011.7789   -1002.4968   -2337.8145 
  120000    3668.4289    322.46122   -893.19465    281.63032   -725.84908   -444.21876   -492.00491    6.4867346    4724.7435   -1311.7431    92.005308    101.66359    392.22512            0    585.89402   -6042.9734   -33.444113      15.4361       15.394       15.438            0            0            0    1355.4868   -1725.7174   -3038.8311     3395.601    2348.6154   -8423.8004 
  121000    3668.4289    285.59563   -537.25718    249.43276    -722.8738   -473.44104   -502.18445     2.039529    4704.5683   -1337.7496     94.10215    124.26882    396.50485            0    614.87582   -6044.3574   -33.444113      15.4361       15.394       15.438            0            0            0    2822.6437     3297.602    1565.6306    308.79672   -1316.3798   -604.18849 
  122000    3668.4289    296.91069   -808.79041    259.31507   -723.98322   -464.66815   -507.93866    34.286537    4677.4045   -1328.5828    85.724087    117.60724    401.26822            0    604.59954   -6040.2738   -33.444113      15.4361       15.394       15.438            0            0            0    747.22746   -2567.1135   -1495.3009    3124.1657   -5942.2443    391.70737 
  123000    3668.4289    300.65352    5407.6877    262.58397    -755.7269   -493.14293   -203.83017    17.552876    4677.1423   -1351.8747    94.062946    101.05737    401.02744            0    596.14775   -6046.5698   -33.444113      15.4361       15.394       15.438            0            0            0   -3355.3498    3734.5542    987.15856    9472.4656    3110.0195     3640.578 
  124000    3668.4289    294.45161    4926.9175    257.16737   -761.26974   -504.10238   -240.51095    14.779723    4684.9281   -1346.0382    83.103797    107.99466    393.66996            0    584.76842    -6045.746   -33.444113      15.4361       15.394       15.438            0            0            0    -4638.311   -1770.3178     -736.535    1240.7368    2841.8435    10698.172 
  125000    3668.4289    303.67266   -1650.3653    265.22082   -733.59763   -468.37681    -556.6718    3.5188453    4684.5309   -1356.5834     101.3404    117.16863    404.47674            0    622.98577   -6044.6331   -33.444113      15.4361       15.394       15.438            0            0            0    935.08489   -3600.7916    3542.1105   -1385.6074    507.75208   -4073.2406 
  126000    3668.4289    272.47469    521.34846    237.97322   -747.17677   -509.20355   -481.31126    27.471721    4654.3925   -1360.5369    93.535077    118.92802    400.89706            0    613.36016   -6042.4011   -33.444113      15.4361       15.394       15.438            0            0            0   -326.19211   -792.44829    1941.5831   -1327.8488    4893.9917   -2002.0975 
  127000    3668.4289    312.40008    1211.3897    272.84315   -746.91443   -474.07128    -409.2616   -11.217638    4740.1431   -1314.4062    74.958432    92.896764    399.63654            0    567.49173   -6043.3316   -33.444113      15.4361       15.394       15.438            0            0            0   -1720.9248    2310.4563   -2790.7927    3151.9925    2724.4518   -2242.2753 
  128000    3668.4289    298.33434   -103.03592    260.55846   -729.28407   -468.72561   -474.23806    -12.14671    4721.7378   -1335.2292    83.720264    121.10528     401.1196            0    605.94514   -6044.8203   -33.444113      15.4361       15.394       15.438            0            0            0    -2732.768    3211.7504    1872.1444   -1987.0091   -6567.1824    8245.0837 
  129000    3668.4289    270.90961   -3316.2065    236.60631   -725.68621    -489.0799   -666.49785   -12.289148    4713.8471    -1339.702    94.366683     117.1278    402.52135            0    614.01582     -6041.26   -33.444113      15.4361       15.394       15.438            0            0            0    993.95703   -117.78822   -479.92334   -1522.5764   -4974.0118   -3452.0312 
  130000    3668.4289    293.31077   -2467.2561    256.17098   -709.60227   -453.43129   -585.43016    10.535391    4710.8756   -1325.1871     100.2416    117.66583     397.6774            0    615.58483   -6046.5981   -33.444113      15.4361       15.394       15.438            0            0            0   -4536.2237     445.4961   -2215.0177   -286.92339    764.97134   -7879.8163 
  131000    3668.4289    299.24817     -1786.33    261.35657   -745.31003   -483.95346    -579.5226   -13.905339    4715.1569   -1342.7176    93.484969    106.64476    397.27789            0    597.40761   -6043.9692   -33.444113      15.4361       15.394       15.438            0            0            0   -1625.3307   -638.24604    2573.4254    3552.3383   -5559.0108   -3352.3175 
  132000    3668.4289    310.36286   -3599.1161    271.06389    -730.9184   -459.85451    -652.4082   -13.570628    4708.9923    -1346.802    89.300325    121.83815    404.74512            0    615.88359   -6042.2237   -33.444113      15.4361       15.394       15.438            0            0            0   -3825.9491   -2085.0375   -1331.7409   -8179.0856   -3452.0758    833.81298 
  133000    3668.4289    285.52694    1123.7145    249.37276    -732.3732   -483.00044   -422.88141    2.8831601    4701.5174   -1339.2397    85.963497     119.1137     401.7893            0     606.8665   -6043.6403   -33.444113      15.4361       15.394       15.438            0            0            0   -1400.1545   -3843.6206   -1461.3456    1951.8102    131.32271    1288.0106 
  134000    3668.4289    285.09779    3682.7681    248.99795   -718.94045    -469.9425    -272.9134    11.746282    4691.3431   -1338.2559    91.687656    120.37722    407.25054            0    619.31542   -6041.3453   -33.444113      15.4361       15.394       15.438            0            0            0    2116.4242   -126.86872    1828.7573     1976.698    6345.6726    2725.9337 
  135000    3668.4289    311.74157   -3673.0592    272.26802   -725.98441   -453.71639   -650.22605      10.9987    4677.5993   -1353.9162    104.10367    125.28591    398.54217            0    627.93174   -6042.5142   -33.444113      15.4361       15.394       15.438            0            0            0    68.826573   -2594.8875   -1581.4678   -1865.3482   -8645.2695   -508.55979 
  136000    3668.4289    290.03942   -229.78482    253.31385   -743.61711   -490.30326   -502.59681     4.518708    4684.0155   -1350.2294    86.828474    117.15904    402.62478            0    606.61229   -6038.7636   -33.444113      15.4361       15.394       15.438            0            0            0    3492.4651     535.5342    40.560688   -1572.3258    604.76276    278.20862 
  137000    3668.4289    256.73471   -625.85514    224.22628   -723.87354   -499.64726   -533.13068    15.133481    4673.1292   -1350.6054    102.02217    118.29594    406.41376            0    626.73187   -6038.8681   -33.444113      15.4361       15.394       15.438            0            0            0   -807.35266   -4955.8323   -3729.6384   -5506.9571    4124.4787   -495.08701 
  138000    3668.4289    286.83541   -2663.6012    250.51555   -728.91553   -478.39998   -620.90337   -7.5057123    4699.4395   -1344.8722    99.402197    116.62836    399.92613            0    615.95669    -6036.806   -33.444113      15.4361       15.394       15.438            0            0            0     565.9191   -1476.1653    -1650.057   -5332.0533    -3633.814    975.06368 
  139000    3668.4289    282.60721    920.02232    246.82274   -739.69245   -492.86971   -443.64827    19.998667    4656.9338   -1363.3023    103.88585    112.99226    406.73169            0    623.60981   -6040.2348   -33.444113      15.4361       15.394       15.438            0            0            0    2835.4496    5234.0629    7653.5368    3054.9183   -2188.3399    1893.4886 
  140000    3668.4289    314.63734   -5441.7966    274.79712   -745.66998   -470.87286   -762.01046   -8.6224158     4700.177   -1353.2265    95.938349    106.86938    404.74881            0    607.55654   -6044.7811   -33.444113      15.4361       15.394       15.438            0            0            0    991.84449    2707.2651   -2597.4185   -7168.9535   -962.41533   -8194.0209 
  141000    3668.4289    317.37851    437.88985     277.1912   -736.09786   -458.90666   -435.47943    21.350415     4678.524   -1340.1974    89.667332    116.22978    398.20244            0    604.09955   -6040.0718   -33.444113      15.4361       15.394       15.438            0            0            0    4853.3288     6.950909    -652.0324    1877.4826   -642.40437    78.591311 
  142000    3668.4289    308.56255    1030.0048    269.49154   -751.93764    -482.4461   -427.34056   -3.5863644    4690.0514   -1354.2384    85.147686    119.15923    397.99389            0    602.30081   -6040.7035   -33.444113      15.4361       15.394       15.438            0            0            0      574.406    625.20671   -2942.2704   -2235.6667   -1368.8157    6694.4968 
  143000    3668.4289    289.96643   -45.193571    253.25011   -740.94532    -487.6952   -490.11307   -1.0546686    4693.6703   -1349.6465    97.391946    108.25971    403.04952            0    608.70117   -6042.2621   -33.444113      15.4361       15.394       15.438            0            0            0    1361.0617    3590.9422    811.68235   -2149.2287    3214.0582   -1200.4102 
  144000    3668.4289    272.15969    1614.4796    237.69811   -725.56424   -487.86613   -401.49104    19.495466    4701.6157   -1319.6797    86.748396    103.22579    404.14128            0    594.11546   -6040.7908   -33.444113      15.4361       15.394       15.438            0            0            0    1044.4026   -2658.7574   -2615.0908    2458.4675   -3775.1873    6160.1585 
  145000    3668.4289    275.85043   -3724.2348    240.92152   -713.24336   -472.32184   -671.56942    3.2947331      4715.65   -1323.6391    101.69889    110.56431     398.1325            0     610.3957   -6042.5838   -33.444113      15.4361       15.394       15.438            0            0            0    2099.0006   -2007.7014   -2655.4026   -8013.5149    3782.1476    -6941.337 
  146000    3668.4289     303.9456     2335.329     265.4592   -709.16684   -443.70763   -318.76689   -17.357481    4736.7607   -1324.0813    93.916046    122.23299    398.76544            0    614.91447   -6043.4845   -33.444113      15.4361       15.394       15.438            0            0            0   -2159.4841     2936.593   -6430.5479    5056.0477   -2217.3764    4167.3159 
  147000    3668.4289    289.03358   -4299.5275    252.43538   -734.89819    -482.4628   -712.48869    -16.35425     4709.871   -1346.7471    89.488358    118.33214    404.02837            0    611.84887   -6040.2638   -33.444113      15.4361       15.394       15.438            0            0            0    2111.7362    4738.7326    153.10958   -2149.4155   -10375.797   -373.36939 
  148000    3668.4289    306.27688   -942.04035    267.49529   -740.72068   -473.22539   -523.62481   -22.858918    4733.0434   -1332.1973    85.012949    111.42436    395.03933            0    591.47665   -6042.3819   -33.444113      15.4361       15.394       15.438            0            0            0    609.60875   -102.36985   -2929.1991   -283.00497   -3320.6911    777.57505 
  149000    3668.4289    312.76467   -2977.5924    273.16158   -707.82966   -434.66809   -593.97009    -10.53049    4694.5201   -1357.3847    105.68572    141.05995    402.80937            0    649.55505   -6041.3743   -33.444113      15.4361       15.394       15.438            0            0            0    -1402.298   -533.85291    3412.7454   -1429.2915   -3345.7974   -4157.6882 
  150000    3668.4289    304.48712   -281.68775    265.93215   -729.92587   -463.99371   -479.06408   -1.5227446    4714.2787   -1329.8018    88.260346    107.60757    404.00805            0    599.87596   -6042.5578   -33.444113      15.4361       15.394       15.438            0            0            0    2726.1248   -1275.0817    3755.9121     1549.955    3514.2738   -5909.2921 
  151000    3668.4289    264.91641   -2822.7879    231.37199    -728.4948   -497.12282   -648.14274   -7.9384571    4717.2103   -1332.0164    93.458611    106.36249    403.70045            0    603.52155   -6041.2882   -33.444113      15.4361       15.394       15.438            0            0            0    2030.1229   -18.595427    976.62494    396.40158    -7033.817   -1830.9484 
  152000    3668.4289    315.33709    530.01606    275.40827   -736.27097    -460.8627    -432.5067    18.296282    4692.2363   -1332.1355    94.632778     98.52679    402.70492            0    595.86449    -6042.668   -33.444113      15.4361       15.394       15.438            0            0            0   -949.80447    3397.6884    772.54057    5089.1627   -1295.4194   -2203.6951 
  153000    3668.4289    304.64929    2807.5681    266.07379   -722.21919    -456.1454   -305.93974    20.375976    4710.7603   -1309.6864    79.269899    105.93253    402.26475            0    587.46718   -6040.8226   -33.444113      15.4361       15.394       15.438            0            0            0    1100.1745    803.25205    1280.8073    2636.7311   -1686.8349     7472.808 
  154000    3668.4289    296.30261    1310.7421    258.78399   -741.02664   -482.24266    -412.1176    1.6257241    4707.3916   -1335.0009    77.811882    119.27277    396.88963            0    593.97428   -6044.0183   -33.444113      15.4361       15.394       15.438            0            0            0    4232.8463   -5143.8678    1879.1988   -1667.3549    5414.8126    184.76863 
  155000    3668.4289    304.34218    4986.9307    265.80557     -700.196   -434.39043   -167.58828    25.239292    4718.2635   -1298.5937    85.019149    117.46806    395.91052            0    598.39772   -6042.0965   -33.444113      15.4361       15.394       15.438            0            0            0    2715.0471    507.68848     2741.675    3792.6962    5463.2469    5704.8491 
  156000    3668.4289    313.45324   -2397.1763    273.76296   -720.53706   -446.77411   -575.02369    3.5882774    4691.2842   -1343.7631    99.258476    119.68865    404.27889            0    623.22602   -6038.6356   -33.444113      15.4361       15.394       15.438            0            0            0   -3190.0388   -4900.9671    91.442224   -8626.2209   -842.67259    2277.3646 
  157000    3668.4289     306.2477     3837.325    267.46981    -711.1221   -443.65229   -238.35436    22.034468    4698.6512   -1320.1207    80.984824    132.02241    395.99133            0    608.99856   -6040.8063   -33.444113      15.4361       15.394       15.438            0            0            0   -158.39933    2231.7112    1973.0442    7674.5451    2205.5036    1631.9263 
  158000    3668.4289    279.78489    2112.3672    244.35779   -712.54308    -468.1853   -355.17308    18.794394    4692.3437   -1331.5565     98.68041    124.27081    396.06218            0    619.01341   -6042.6946   -33.444113      15.4361       15.394       15.438            0            0            0   -913.24792   -3028.7745    1549.0595    4746.6742    2171.9657   -581.53807 
  159000    3668.4289    313.56651    5031.5977    273.86189   -724.44775   -450.58586   -181.39402  -0.77848543    4727.7842   -1320.4016    88.387759    107.27049    400.29565            0     595.9539   -6047.4073   -33.444113      15.4361       15.394       15.438            0            0            0    1822.8654   -2808.6478   -909.27146    440.67857    8208.1497    6445.9647 
  160000    3668.4289    301.24242   -2191.7589     263.0983   -724.22676   -461.12846   -578.38816      6.87816     4721.177   -1316.3886    85.609555    105.29168    401.26058            0    592.16181   -6044.4437   -33.444113      15.4361       15.394       15.438            0            0            0   -358.37796    1777.1463   -2793.1903    -3008.692   -429.40236   -3137.1825 
  161000    3668.4289    300.19206    3641.2434    262.18094   -729.84578   -467.66484   -272.85732   -1.9638295    4713.1148   -1329.0342    82.166122    115.34428    401.67798            0    599.18838   -6040.1851   -33.444113      15.4361       15.394       15.438            0            0            0    589.04074    3545.8303    1354.2961    2073.9293     4500.414     4349.387 
  162000    3668.4289    298.81263    1985.8556    260.97618   -733.17214   -472.19595   -365.95214   -5.2467897     4708.605   -1342.6539    86.888237    123.45554    399.13801            0    609.48179   -6046.0121   -33.444113      15.4361       15.394       15.438            0            0            0    3011.5614   -4037.5735   -2168.4934    4359.1527    712.41012     886.0039 
  163000    3668.4289    284.68882    2569.2782    248.64077   -721.24524   -472.60447   -335.14739    2.0432005     4715.439   -1325.4295    86.569026    121.33428    396.28099            0     604.1843   -6042.9118   -33.444113      15.4361       15.394       15.438            0            0            0   -1699.2948    999.13993    3092.4038     2862.635    285.16798    4560.0316 
  164000    3668.4289    273.01186    -2784.506    238.44238   -726.35969   -487.91731   -636.88914    50.083769    4665.6184   -1333.4673    103.21559    106.41257    397.47947            0    607.10763   -6049.1695   -33.444113      15.4361       15.394       15.438            0            0            0   -327.88275    -2561.499   -2113.9484   -5341.6168    1253.3529   -4265.2542 
  165000    3668.4289    325.62757   -2293.1613    284.39574   -747.62384    -463.2281   -585.91286    13.795156    4653.2041   -1372.7543    93.873807    132.64534    398.61128            0    625.13043   -6039.7535   -33.444113      15.4361       15.394       15.438            0            0            0   -1731.0654    3618.8726    3514.3251   -4004.6786   -5174.9769    2300.1716 
  166000    3668.4289    302.84746   -1585.1924    264.50011   -760.58983   -496.08972   -580.89794    3.7230572    4663.3906   -1375.3919    87.697833    128.01416    399.09008            0    614.80207   -6042.5056   -33.444113      15.4361       15.394       15.438            0            0            0   -886.66832    3525.2652   -1683.7074   -3504.8483   -2723.7726    1473.0438 
  167000    3668.4289    288.73603   -4059.0634    252.17551   -729.91647   -477.74096   -694.90196   -13.892562    4707.5986    -1348.006    89.448725    133.65834    394.98244            0    618.08951    -6041.712   -33.444113      15.4361       15.394       15.438            0            0            0    495.92638   -2808.5823   -898.14875   -4833.3505   -2816.6393   -4527.2006 
  168000    3668.4289    269.20356   -499.45711    235.11629   -753.68627   -518.56999   -545.29108    5.7457738    4673.0856   -1366.5854    94.355345    118.77413    399.76962            0     612.8991   -6045.4168   -33.444113      15.4361       15.394       15.438            0            0            0    936.20568     2186.374   -831.30924     391.6129   -2272.9572    382.97297 
  169000    3668.4289    291.56797   -3862.2454    254.64886   -735.00902   -480.36016   -686.99133    1.8303932    4715.6012   -1324.3905    85.437795    107.21518     396.7285            0    589.38147   -6041.8221   -33.444113      15.4361       15.394       15.438            0            0            0   -986.93538   -1813.2681    1068.8838   -2914.2417   -4097.3977   -4575.0967 
  170000    3668.4289    284.51851   -648.42987    248.49202   -751.92421   -503.43219   -538.12337    21.856588    4667.0035   -1353.8396    91.285009    107.01986    403.61057            0    601.91543   -6042.6997   -33.444113      15.4361       15.394       15.438            0            0            0    263.94136   -4448.1069    3426.3333    1826.0746   -2188.6761   -1582.6881 
  171000    3668.4289    298.93004    1597.8189    261.07873    -752.9357   -491.85697   -406.37323    5.7922319    4695.7486   -1340.2302    82.921084    110.01303    394.36039            0     587.2945    -6041.771   -33.444113      15.4361       15.394       15.438            0            0            0   -449.08774    2041.7892    665.80961   -1277.7862    2668.8928      3402.35 
  172000    3668.4289    310.99867   -2846.9815    271.61919   -724.53169    -452.9125   -605.22679    5.4806567    4703.4131   -1329.9856    101.49105     111.0168    392.94602            0    605.45387   -6038.8793   -33.444113      15.4361       15.394       15.438            0            0            0   -3292.5787    3788.9068    1334.5036   -2283.4642   -3701.0007   -2556.4797 
  173000    3668.4289    299.26772   -1528.7452    261.37365   -724.12438   -462.75074   -544.53902   -5.4391776    4719.1686   -1328.2333    92.389682    113.59255    398.12664            0    604.10887   -6041.9627   -33.444113      15.4361       15.394       15.438            0            0            0    -4611.419   -7006.7499    1251.8987   -1984.6294    776.39962   -3378.0057 
  174000    3668.4289    301.40592   -431.38162     263.2411   -714.17524   -450.93414   -474.01317   -12.704888    4732.2901   -1322.4362    91.769846    109.41995    407.07112            0    608.26091   -6042.0214   -33.444113      15.4361       15.394       15.438            0            0            0    -5106.447    1920.1074    -2360.748    769.42033   -974.77119    -1088.794 
  175000    3668.4289     291.1539   -3961.9681    254.28722   -729.29607   -475.00885   -686.97522    3.5523088    4689.4141   -1350.1464    97.063012     119.8955    403.89185            0    620.85036   -6043.1128   -33.444113      15.4361       15.394       15.438            0            0            0    1282.4195    1351.9261    383.87415   -1715.7773   -4227.8258   -5942.3014 
  176000    3668.4289     304.5366     595.1809    265.97537   -738.48369   -472.50832   -440.66598   -20.003798    4730.2681   -1332.7653    92.318603    104.33397    397.62903            0     594.2816   -6043.0296   -33.444113      15.4361       15.394       15.438            0            0            0   -2115.8604    4020.8092     720.9915    259.97198    2608.6179   -1083.0471 
  177000    3668.4289    295.87644    2757.5292    258.41178   -738.75896   -480.34719   -332.81862    30.173173    4679.6227   -1331.9497    84.943503    114.91579     393.3314            0     593.1907   -6041.7455   -33.444113      15.4361       15.394       15.438            0            0            0   -3885.7797     1589.062   -1041.4804    3604.3957   -53.354079     4721.546 
  178000    3668.4289    321.10387    3176.7315    280.44485    -730.0798   -449.63495   -279.67895    33.192639    4661.9842   -1346.3974    93.500063    121.11774    401.69983            0    616.31763   -6041.5742   -33.444113      15.4361       15.394       15.438            0            0            0    1036.7304    1981.3757    3189.7211    929.79197     6450.456    2149.9465 
  179000    3668.4289    297.18299    4287.1046    259.55289   -735.23313   -475.68024   -246.31898     -5.24823    4720.7142   -1321.9049     73.05436    111.23275    402.38468            0    586.67179   -6037.3709   -33.444113      15.4361       15.394       15.438            0            0            0   -1965.5492   -82.745551    3562.3134    4364.2233    5854.2606    2642.8298 
  180000    3668.4289    274.62157    3327.8183    239.84826   -713.29242   -473.44417   -295.40498    6.3795573    4692.6071   -1343.4669    89.058474    135.03817    406.07784            0    630.17449   -6042.4536   -33.444113      15.4361       15.394       15.438            0            0            0     2566.711    1706.3269   -607.94284    1346.8026    1680.3531     6956.299 
  181000    3668.4289    309.16166    113.48267    270.01479   -725.47281   -455.45802   -449.38667    63.358349    4634.8421   -1344.4733    101.40639    121.01404    396.58008            0    619.00052   -6042.6738   -33.444113      15.4361       15.394       15.438            0            0            0    1382.1835    3427.9549   -2120.5185    2252.6703    4868.6729   -6780.8952 
  182000    3668.4289    294.21078   -2606.7562    256.95703   -741.04723    -484.0902   -623.55236    5.4884259    4682.1572   -1353.6616    88.683827     126.3565    397.57401            0    612.61434   -6041.3072   -33.444113      15.4361       15.394       15.438            0            0            0     1628.167   -1460.7991   -1752.6023    1140.5206    -7316.553   -1644.2361 
  183000    3668.4289    317.18591    13.528367    277.02299   -743.39991   -466.37692   -465.65315    17.494285      4670.44   -1353.5694    88.123977    114.19317    407.85238            0    610.16952   -6041.5037   -33.444113      15.4361       15.394       15.438            0            0            0    759.13535   -4726.2775   -260.27259   -1349.7577    3077.1401   -1686.7973 
  184000    3668.4289    312.10658   -837.34602    272.58681   -738.82362   -466.23681   -511.03505    12.376901    4679.7461   -1344.0828    98.131122    106.01379    401.11429            0     605.2592   -6036.2058   -33.444113      15.4361       15.394       15.438            0            0            0    2442.3659    2535.4455   -189.47134    5158.8616   -4120.0427   -3550.8569 
  185000    3668.4289    266.14005   -553.55907    232.44069    -725.3155   -492.87481   -522.49037    8.2190375    4701.8849   -1334.6358    93.265737    122.18257    393.87202            0    609.32033   -6044.7398   -33.444113      15.4361       15.394       15.438            0            0            0    -4294.664   -899.42414    3913.9257   -1108.1816   -4362.8427    3810.3471 
  186000    3668.4289    322.05219     663.3914    281.27309   -712.72759    -431.4545   -395.96288    3.6299094    4710.7925   -1332.0214     99.03026    127.65321    392.61031            0    619.29378   -6046.4437   -33.444113      15.4361       15.394       15.438            0            0            0   -1995.6533   -1974.1094   -1167.5047   -427.23112    1803.8525     613.5528 
  187000    3668.4289    286.53891   -366.33967    250.25659     -739.663   -489.40641   -509.00568    7.0069034    4715.7998   -1324.2396    85.116644    100.98508    398.47483            0    584.57656   -6047.0462   -33.444113      15.4361       15.394       15.438            0            0            0   -6268.0903   -781.61886   -136.94532    2138.2306   -312.44997   -2924.7996 
  188000    3668.4289    268.80842    -7249.049    234.77118   -738.07058    -503.2994    -891.1255    2.9624367    4696.4337   -1346.5999    88.796403    123.12896    396.60392            0    608.52928    -6045.996   -33.444113      15.4361       15.394       15.438            0            0            0   -1612.5094    1317.9291   -201.94249   -10733.944   -13081.919    2068.7161 
  189000    3668.4289    295.30029   -3260.2043    257.90858    -729.7829   -471.87432   -646.29614   -15.361265    4728.6179   -1329.3359     93.95299    108.26684    397.33322            0    599.55304   -6042.5926   -33.444113      15.4361       15.394       15.438            0            0            0    -3889.802   -4213.2642    -2773.159    -3977.945   -1804.7063   -3997.9617 
  190000    3668.4289    285.37647    -1025.944    249.24134   -728.20431   -478.96297   -533.85125   -6.3313552    4705.0887   -1344.4793    77.786057    136.04861    402.44034            0    616.27501   -6043.2367   -33.444113      15.4361       15.394       15.438            0            0            0    1720.6474    2143.2284    -3825.864    1994.0384   -1218.1865   -3853.6839 
  191000    3668.4289    285.52353    845.68648    249.36978   -704.43649    -455.0667   -409.82225    13.196249    4711.9669    -1314.336    93.468193    119.48706    396.94423            0    609.89949   -6039.4991   -33.444113      15.4361       15.394       15.438            0            0            0    2535.9127   -5555.6592    3787.8411   -4787.9795     3138.303    4186.7358 
  192000    3668.4289    277.20358   -117.11361    242.10333   -728.04556   -485.94223   -492.20784    28.118645    4677.0746    -1340.303    94.231753     116.4014    401.62432            0    612.25748   -6045.4963   -33.444113      15.4361       15.394       15.438            0            0            0    2362.6979    956.02656   -413.16203   -1496.7281   -436.34524    1581.7325 
  193000    3668.4289    319.73812   -3839.9644    279.25203   -753.01014   -473.75811   -679.19725   0.27429346    4675.7255   -1368.9137    97.453874    121.43606    397.01361            0    615.90355   -6044.9135   -33.444113      15.4361       15.394       15.438            0            0            0   -1487.2753    851.65846    -1025.468    -6130.653    588.71155   -5977.9517 
  194000    3668.4289    309.50779    758.29311    270.31709   -728.12434   -457.80725   -417.23836   -14.298921    4723.7758   -1331.8695    84.526336    117.25756    401.96126            0    603.74516   -6041.3464   -33.444113      15.4361       15.394       15.438            0            0            0   -743.11775   -827.32882    1843.2943   -249.63182   -41.779065    2566.2902 
  195000    3668.4289    325.71519   -1268.5157    284.47227   -745.00812   -460.53586   -528.40179   -7.5411967    4695.1594   -1357.3521    84.815664    131.00273    396.52554            0    612.34393   -6044.9703   -33.444113      15.4361       15.394       15.438            0            0            0   -5721.2908    2379.3323    1162.6172   -2214.7721   -528.90018   -1061.8747 
  196000    3668.4289    336.03607    2765.8309    293.48629   -740.44971   -446.96342   -298.99071    10.683711    4671.9033   -1359.8216     80.58818    136.03878     402.7449            0    619.37186   -6042.4085   -33.444113      15.4361       15.394       15.438            0            0            0   -2074.5599    531.41052    715.65729    2389.7422    4372.3773    1535.3733 
  197000    3668.4289     304.5369    1625.2043    265.97563   -737.85419   -471.87856   -384.92969    10.678689    4711.3624   -1325.2858    81.956504    108.75113    396.72395            0    587.43158   -6047.3268   -33.444113      15.4361       15.394       15.438            0            0            0   -1026.7733    2059.1516    568.79139    2291.5823    1151.8066    1432.2241 
[...]
 9955000    3668.4289    311.10715   -1691.8902    271.71394   -737.78648   -466.07255   -556.58913     6.173707    4697.2602   -1337.7097    94.949738    100.28823    404.68527            0    599.92324   -6041.1436   -33.444113      15.4361       15.394       15.438            0            0            0   -5897.1818    1630.7332   -1556.6956    4938.4342    -10069.24    55.135317 
 9956000    3668.4289    290.39629    706.96388    253.62554   -717.93176   -464.30622   -426.48346    24.105574    4698.8148   -1320.3063     94.49129    107.67927    400.20394            0     602.3745   -6043.2267   -33.444113      15.4361       15.394       15.438            0            0            0   -5603.1076   -520.62882    -6900.024    4257.0788   -2874.4564    738.26922 
 9957000    3668.4289    308.14978    1108.2206    269.13104   -704.83543   -435.70439   -376.41429    4.4560052    4721.0008   -1315.9874    99.648533    111.00404    400.49936            0    611.15193   -6041.4442   -33.444113      15.4361       15.394       15.438            0            0            0    2583.2839   -6584.8522   -505.13228    899.66142    4346.8755   -1921.8752 
 9958000    3668.4289    283.28029   -848.41697    247.41059   -704.25074   -456.84016   -502.23069    11.408159    4703.7772   -1329.6766     97.96092    133.29625    394.16872            0    625.42589    -6044.862   -33.444113      15.4361       15.394       15.438            0            0            0     490.6189    3314.6932   -4607.1924   -2936.0829   -757.33327    1148.1653 
 9959000    3668.4289    300.13771     1906.285    262.13348   -749.18255   -487.04907   -385.06231   0.15713499    4709.2098   -1330.9062    77.363113    100.53521    403.82534            0    581.72365   -6040.2732   -33.444113      15.4361       15.394       15.438            0            0            0   -760.95332    2981.4083   -1200.5009   -179.12584    1385.9408      4512.04 
 9960000    3668.4289    294.43324   -1704.2095    257.15132   -738.23076   -481.07944   -572.25511    5.6784603     4715.693   -1320.9023    84.060747    97.950512    400.66025            0    582.67151   -6042.2738   -33.444113      15.4361       15.394       15.438            0            0            0   -1316.4085   -318.05447   -951.70322    963.31658   -3612.2446   -2463.7004 
 9961000    3668.4289    302.02585    3561.9553    263.78253   -711.58932   -447.80679   -257.24121    3.7995716    4729.9974   -1304.7391    89.119826     106.5159    397.51401            0    593.14973    -6038.536   -33.444113      15.4361       15.394       15.438            0            0            0   -884.02727    1538.8186   -2617.4573    2715.9498   -2268.9403    10238.856 
 9962000    3668.4289    323.56272     1879.197    282.59235   -753.14038   -470.54803   -370.01048    16.222961    4678.7244   -1350.9381    84.263315    113.07246    400.46194            0    597.79772   -6045.8855   -33.444113      15.4361       15.394       15.438            0            0            0    35.349309   -44.875501   -2732.1372    5998.0569     625.0778   -985.54368 
 9963000    3668.4289     279.8183    3765.4568    244.38697   -735.31256   -490.92559   -289.47263   0.22094424    4707.7575   -1336.7767    82.722374    120.86544    397.87631            0    601.46412   -6044.7551   -33.444113      15.4361       15.394       15.438            0            0            0    860.04491    -2878.722   -4818.7807   -1070.9863    10393.009    1974.3483 
 9964000    3668.4289    304.96005   -3793.4169     266.3452   -737.30885   -470.96365   -673.91249   -8.0936049    4698.1409     -1352.39    101.09577    116.54205    397.44329            0    615.08111   -6042.4372   -33.444113      15.4361       15.394       15.438            0            0            0    6090.8021   -782.12244   -985.34726   -2535.4808   -5031.4649   -3813.3048 
 9965000    3668.4289    298.44739   -5213.7329    260.65719   -732.47676   -471.81957    -750.7557    9.4847752    4696.6604   -1333.2267    92.024067    107.14146    401.58441            0    600.74994   -6039.3719   -33.444113      15.4361       15.394       15.438            0            0            0    516.37298   -809.90925    5361.1214   -3895.9778   -6514.2139   -5231.0069 
 9966000    3668.4289    324.87286    1860.2716    283.73659   -721.53084   -437.79425   -338.26921    24.911426    4680.0606   -1338.3064    94.219252    121.00148    401.55485            0    616.77558   -6043.2785   -33.444113      15.4361       15.394       15.438            0            0            0    1438.4605   -1494.7914   -1453.6139    2703.9199   -2993.6031    5870.4979 
 9967000    3668.4289    316.48604    2641.0025    276.41173   -732.08261   -455.67088   -314.37653   -3.4222741      4709.73   -1334.9263    93.952379     107.6966    401.19473            0    602.84371    -6041.234   -33.444113      15.4361       15.394       15.438            0            0            0      1468.18    896.53771    537.67499    863.85397    5446.8757    1612.2777 
 9968000    3668.4289    291.62036    3122.4989    254.69461   -756.06244   -501.36782   -334.31328     2.477291     4696.471    -1342.724    78.751632    110.85648    397.05345            0    586.66156   -6041.6723   -33.444113      15.4361       15.394       15.438            0            0            0    1415.8228   -3175.6998    738.37897    258.63805   -2089.8013     11198.66 
 9969000    3668.4289    302.01864    180.17409    263.77624   -746.71989   -482.94364   -473.30428    -12.39147    4696.0216   -1359.9808    88.220573    130.60422    394.43617            0    613.26096    -6043.611   -33.444113      15.4361       15.394       15.438            0            0            0    1653.8917   -5378.0897   -2892.0808    4018.7258   -3625.2968    147.09329 
 9970000    3668.4289    284.90856    1365.5146    248.83268   -750.54861   -501.71593   -428.66053   -8.7705213    4691.1723   -1361.8291    85.427442    125.36809    400.48495            0    611.28048   -6044.2308   -33.444113      15.4361       15.394       15.438            0            0            0   -2463.5499    1257.3349    -1759.528    108.67528    2761.3971    1226.4713 
 9971000    3668.4289    314.46264   -1552.6898    274.64454   -736.81717   -462.17263   -545.24195    1.0085829    4710.8467   -1330.1821    95.216581    99.770015    398.37835            0    593.36495   -6042.0374   -33.444113      15.4361       15.394       15.438            0            0            0   -3577.9926    -2494.791   -1639.4814   -1940.4067   -3742.5444    1024.8818 
 9972000    3668.4289    307.75019   -2749.3994    268.78204   -718.94198   -450.15994   -597.25355   -16.349579    4727.5785   -1325.1975    91.776859    108.11852    406.36014            0    606.25553   -6036.4264   -33.444113      15.4361       15.394       15.438            0            0            0    985.10232   -6457.4319   -110.00514   -6617.8895    843.29415   -2473.6029 
 9973000    3668.4289     289.8492   -3587.3498    253.14772   -740.97937   -487.83164   -679.75584   -6.5564879     4710.752   -1338.1355    90.850773    110.00305    396.30229            0    597.15612    -6042.331   -33.444113      15.4361       15.394       15.438            0            0            0   -408.48304    880.28006   -3420.0714   -283.55515    -5600.174   -4878.3203 
 9974000    3668.4289    299.42977    2274.7468    261.51518    -740.3379   -478.82273   -357.12316   -4.4701944    4703.6025   -1344.8178    78.997499    126.67753    398.80482            0    604.47985     -6043.95   -33.444113      15.4361       15.394       15.438            0            0            0   -982.82739   -24.839726    286.79811   -502.77036    8766.9984   -1439.9877 
 9975000    3668.4289    315.55664    1387.2307    275.60002   -723.43804   -447.83802    -373.6208    2.9594055    4726.9173   -1312.5241    87.850533    104.32804    396.90752            0    589.08609   -6042.4009   -33.444113      15.4361       15.394       15.438            0            0            0    708.32182   -571.90932    3949.4397   -1541.9527    3626.2773    2077.3675 
 9976000    3668.4289    286.52076   -3014.0133    250.24074   -731.67759   -481.43685   -642.68738    14.023848    4673.4659   -1354.7444     100.8162    119.47772    402.77294            0    623.06686   -6042.2342   -33.444113      15.4361       15.394       15.438            0            0            0   -3543.9256    2136.6289    -2630.675   -2345.5304   -1301.0804   -5395.4291 
 9977000    3668.4289    308.81587   -347.39647    269.71278   -722.93819    -453.2254   -471.81121  -0.69195276    4723.4276   -1324.8239    91.997091    109.89641    399.99217            0    601.88567   -6047.5595   -33.444113      15.4361       15.394       15.438            0            0            0    769.04192    1950.7594   -1219.1904    429.93196    2512.6947   -3984.8161 
 9978000    3668.4289    303.50859    1414.6112    265.07753   -739.97252     -474.895   -399.21291    8.1251464    4715.8047   -1319.8845     85.16661     99.38479    395.36055            0    579.91195   -6043.8143   -33.444113      15.4361       15.394       15.438            0            0            0    1686.0345   -678.33869    4949.5497   -880.50391    2776.6595     2347.678 
 9979000    3668.4289    301.25254   -730.28639    263.10714   -726.11025   -463.00311   -502.07363    4.2696949    4729.5946   -1313.2011    78.285075    114.31804    394.48777            0    587.09088   -6047.0654   -33.444113      15.4361       15.394       15.438            0            0            0   -1190.4935    855.58901     947.1364    2352.1627    24.000294   -4567.0221 
 9980000    3668.4289    313.67411    5188.3243    273.95586   -725.34961   -451.39375   -173.81699    6.2897886    4715.5203   -1319.9366    82.362763    111.99743    400.22678            0    594.58698   -6041.7466   -33.444113      15.4361       15.394       15.438            0            0            0   -2603.3618   -337.26788   -3493.4532    3558.2218    2742.3085    9264.4425 
 9981000    3668.4289    307.50485   -960.52597    268.56777   -747.64873   -479.08096   -530.46936    7.9566775    4694.2562   -1341.5815    85.739445    109.31951    398.87383            0    593.93279   -6043.7944   -33.444113      15.4361       15.394       15.438            0            0            0    1855.5272    -911.2061    1654.2812   -2774.4521    1778.7498   -1885.8756 
 9982000    3668.4289     298.0364   -2137.0774    260.29824   -737.54889   -477.25065   -591.58487     7.447116    4695.9712   -1342.5823    90.345117     111.9366    402.75169            0    605.03341   -6046.0006   -33.444113      15.4361       15.394       15.438            0            0            0   -2104.0211    2212.0011    262.95245   -2264.6526    1802.3983    -5948.978 
 9983000    3668.4289    304.36679    2698.9775    265.82706   -740.40617   -474.57911   -330.18308   -6.3999473    4734.3593   -1314.3232    69.435371    109.13107    395.35055            0    573.91699   -6042.2825   -33.444113      15.4361       15.394       15.438            0            0            0    1741.8777   -432.15562    1557.4459    5752.8972   -1428.8143    3772.8494 
 9984000    3668.4289    316.52154    -1302.884    276.44274   -743.34054   -466.89779   -536.60244    27.973393     4667.525   -1346.6741    94.635643    109.09797    399.59996            0    603.33358   -6042.1725   -33.444113      15.4361       15.394       15.438            0            0            0   -127.40512    1104.3393    1257.6081    1803.8887   -3953.3671   -1759.1737 
 9985000    3668.4289    275.44458   -1911.1447    240.56706   -749.45262   -508.88556   -611.13233   -6.4221307    4697.3507   -1349.3246    93.983989     110.4436    395.44443            0    599.87201   -6040.2532   -33.444113      15.4361       15.394       15.438            0            0            0    728.56754   -1337.3864    8169.5633   -1573.7398   -4925.8926    766.19819 
 9986000    3668.4289    310.62668   -1388.0091    271.29431   -740.03782   -468.74352   -543.00238    4.8989624    4694.5576   -1342.3777    86.036977    115.12953     401.1734            0    602.33991   -6041.8343   -33.444113      15.4361       15.394       15.438            0            0            0   -3348.7617   -2920.9298     662.1263   -1221.8983     126.9597   -3069.0886 
 9987000    3668.4289    314.80196    -3565.714     274.9409   -717.33684   -442.39594   -633.16261   -16.687466    4723.9911   -1336.3581    97.469962    118.17876    403.37257            0    619.02128   -6043.6618   -33.444113      15.4361       15.394       15.438            0            0            0    -2333.346   -2228.0836    1571.8595   -2320.9748   -4359.0102    -4017.157 
 9988000    3668.4289    304.15441   -1210.4128    265.64157    -733.4551   -467.81352   -532.57094    6.5622385    4687.9272   -1353.5496    90.746741    130.54418    398.80355            0    620.09447    -6048.039   -33.444113      15.4361       15.394       15.438            0            0            0    344.75688   -1444.8173    433.22506    2427.5004   -5147.1554   -911.58351 
 9989000    3668.4289    313.17159   -2259.6059    273.51697   -705.00376   -431.48678   -552.37631   -26.503424    4752.1663   -1319.1443    89.361607    124.47254    400.30645            0    614.14059   -6044.8072   -33.444113      15.4361       15.394       15.438            0            0            0   -577.64097   -2252.9872    830.47826   -7490.4978   -1447.5351    2159.2151 
 9990000    3668.4289    293.41661   -1311.9671    256.26342   -722.02804   -465.76462   -535.95522    5.1739228    4691.3857   -1347.3491    96.144504    129.70202    399.47457            0    625.32109   -6043.9087   -33.444113      15.4361       15.394       15.438            0            0            0    2589.8139    135.42606    4642.5807    214.31171   -1136.4055   -3013.8076 
 9991000    3668.4289    277.83953    4159.0219    242.65875   -742.57708   -499.91833   -277.40953    30.779367    4667.8538   -1346.9506     85.41124    121.37419    397.58812            0    604.37355   -6045.5838   -33.444113      15.4361       15.394       15.438            0            0            0   -1310.1345   -1917.5831   -343.94065    2740.1281    3017.7897     6719.148 
 9992000    3668.4289    273.75202   -924.80583    239.08881   -737.54305   -498.45424    -547.9316    37.695317    4642.2535   -1361.0352    92.872017    132.24563    398.37446            0    623.49211    -6040.984   -33.444113      15.4361       15.394       15.438            0            0            0   -622.22673    1088.0252   -4661.2375   -30.704876   -5774.3784    3030.6658 
 9993000    3668.4289    310.75156   -3296.8381    271.40337   -749.75227    -478.3489   -654.73063   -1.4392089    4694.5677   -1350.8427    99.775139    103.74497    397.57036            0    601.09047   -6043.9712   -33.444113      15.4361       15.394       15.438            0            0            0    207.59357   -1444.3108   -1815.6605   -1500.8408   -5660.0376   -2729.6358 
 9994000    3668.4289    283.94999    3106.8175    247.99549   -730.22984   -482.23435   -316.01877    8.0555113    4693.1405   -1344.0385    87.928394    128.17344    397.70683            0    613.80867   -6045.2345   -33.444113      15.4361       15.394       15.438            0            0            0    328.14431   -3676.0886    1642.6325    3338.4404    1838.1571    4143.8549 
 9995000    3668.4289    291.51391      2708.83    254.60165   -697.90434    -443.3027   -298.37955   -3.6100375    4742.4035   -1300.3779    87.917871    111.98272    402.57294            0    602.47353   -6039.1714   -33.444113      15.4361       15.394       15.438            0            0            0   -1734.0139    645.60772   -2819.4828    1949.7729    5393.6264     783.0906 
 9996000    3668.4289    309.16592   -1424.3141    270.01851   -737.92827   -467.90976   -544.11095    2.8425622    4699.9064   -1341.9341     99.80192    101.94042    402.26354            0    604.00588   -6044.6831   -33.444113      15.4361       15.394       15.438            0            0            0    -2615.806   -6085.1553    1204.8608   -4643.3977    3234.4629   -2864.0074 
 9997000    3668.4289     284.9634   -2722.9857    248.88058   -740.97949   -492.09891   -637.77939    -6.886409    4712.0967   -1339.3107    77.626593    125.92163    394.78299            0    598.33121   -6044.5209   -33.444113      15.4361       15.394       15.438            0            0            0   -1255.1732    -1111.663    875.29494   -5015.5788   -5387.0665    2233.6881 
 9998000    3668.4289    303.35858    6179.3045    264.94651   -728.66132   -463.71481   -133.12033    10.973112    4709.9621   -1325.8185    79.006045     119.5198    398.63136            0    597.15721   -6046.7538   -33.444113      15.4361       15.394       15.438            0            0            0   -1982.4086     2983.999   -2271.0074    8583.1291    3711.7219    6243.0625 
 9999000    3668.4289    286.21785    1743.5086    249.97619   -717.17515   -467.19897   -373.92078    15.920004    4691.1386   -1333.9634    100.92224    118.12572    397.74024            0     616.7882   -6041.0219   -33.444113      15.4361       15.394       15.438            0            0            0    4328.4862   -730.23481    333.82731    4257.7101   -747.94157    1720.7572 
10000000    3668.4289    311.60694      -3420.4    272.15044   -737.89245     -465.742   -648.73433   -4.2285029    4702.0369   -1345.1164    97.474068    113.52247    396.22746            0      607.224   -6042.9248   -33.444113      15.4361       15.394       15.438            0            0            0   -6070.8994    25.097197   -1069.0992    -2905.588   -3325.9239    -4029.688 
Loop time of 5323.77 on 4 procs for 10000000 steps with 294 atoms

Performance: 162.291 ns/day, 0.148 hours/ns, 1878.370 timesteps/s
93.9% CPU use with 4 MPI tasks x 1 OpenMP threads

MPI task timing breakdown:
Section |  min time  |  avg time  |  max time  |%varavg| %total
---------------------------------------------------------------
Pair    | 1408.8     | 1537.7     | 1691.2     | 329.5 | 28.88
Bond    | 121.78     | 125.79     | 132.44     |  35.9 |  2.36
Kspace  | 2634.2     | 2776.2     | 2906.3     | 236.1 | 52.15
Neigh   | 140.46     | 141.96     | 143.44     |  11.2 |  2.67
Comm    | 620.2      | 626.51     | 633.63     |  21.7 | 11.77
Output  | 3.2483     | 3.3067     | 3.4771     |   5.4 |  0.06
Modify  | 40.046     | 43.579     | 46.911     |  49.1 |  0.82
Other   |            | 68.75      |            |       |  1.29

Nlocal:    73.5 ave 78 max 67 min
Histogram: 1 0 0 0 0 0 1 1 0 1
Nghost:    1672.75 ave 1687 max 1661 min
Histogram: 1 1 0 0 0 0 1 0 0 1
Neighs:    8991.5 ave 9786 max 7640 min
Histogram: 1 0 0 0 0 0 1 0 1 1

Total # of neighbors = 35966
Ave neighs/atom = 122.333
Ave special neighs/atom = 4.87755
Neighbor list builds = 339868
Dangerous builds = 0


write_restart   restart.${NAME}
write_restart   restart.mol
PPPM initialization ...
  using 12-bit tables for long-range coulomb (src/kspace.cpp:332)
  G vector (1/distance) = 0.383154
  grid = 12 12 12
  stencil order = 5
  estimated absolute RMS force accuracy = 0.0217689
  estimated relative force accuracy = 6.55565e-05
  using double precision KISS FFT
  3d grid and FFT values/proc = 3211 432
write_data	data.*
PPPM initialization ...
  using 12-bit tables for long-range coulomb (src/kspace.cpp:332)
  G vector (1/distance) = 0.383154
  grid = 12 12 12
  stencil order = 5
  estimated absolute RMS force accuracy = 0.0217689
  estimated relative force accuracy = 6.55565e-05
  using double precision KISS FFT
  3d grid and FFT values/proc = 3211 432
Total wall time: 1:28:44
